HEADER
"PSFversion" "1.00"
"I6n I5n I3n I1n I0n" "NAND2"
"I7n" "INV"
"I4n I2n" "NOR2"
"A<7>v" ":1v"
"A<6>v" ":2v"
"A<5>v" ":3v"
"A<4>v" ":4v"
"A<3>v" ":5v"
"A<2>v" ":6v"
"A<1>v" ":7v"
"A<0>v" ":8v"
"WLv" ":9v"
