HEADER
"PSFversion" "1.00"
"Time Stamp" "Dec 22 00:15:02 2022"
TYPE
"variable" STRUCT(
"value" FLOAT DOUBLE
) PROP( "key" "element" )
VALUE
"temp" "variable" ( 27 ) PROP( )
END
