HEADER
"PSFversion" "1.00"
"V0n" "analogLib_vpulse_spectre"
"C0n" "analogLib_cap_spectre"
"V1n" "analogLib_vdc_spectre"
"PM0n" "umc65ll_P_12_LLRVT_spectre"
"NM0n" "umc65ll_N_12_LLRVT_spectre"
