HEADER
"PSFversion" "1.00"
"Time Stamp" "Dec 22 00:12:09 2022"
TYPE
"variable" STRUCT(
"value" FLOAT DOUBLE
) PROP( "key" "element" )
VALUE
"cap_val" "variable" ( 10e-21 ) PROP( )
"temp" "variable" ( 27 ) PROP( )
END
