HEADER
"PSFversion" "1.00"
"I1n I0n" "INV"
"Av" ":1v"
"Zv" ":2v"
