HEADER
"PSFversion" "1.00"
"R0n R7n R6n R5n R4n R3n R1n R2n" "umc65ll_RM3_spectre"
"Sel0v" ":1v"
"Sel1v" ":2v"
"SelOUT<1>v" ":3v"
"SelOUT<0>v" ":4v"
"Sel2v" ":5v"
"Sel3v" ":6v"
"Sel4v" ":7v"
"Sel5v" ":8v"
"Sel6v" ":9v"
"Sel7v" ":10v"
"SelOUT<7>v" ":11v"
"SelOUT<6>v" ":12v"
"SelOUT<5>v" ":13v"
"SelOUT<4>v" ":14v"
"SelOUT<3>v" ":15v"
"SelOUT<2>v" ":16v"
