HEADER
"PSFversion" "1.00"
"I2<1>n I2<0>n" "Post_L3_8t8"
"Sel0<1>v" ":1v"
"Sel0<0>v" ":2v"
"Sel1<1>v" ":3v"
"Sel1<0>v" ":4v"
"Sel2<1>v" ":5v"
"Sel2<0>v" ":6v"
"Sel3<1>v" ":7v"
"Sel3<0>v" ":8v"
"Sel4v" ":9v"
"Sel5v" ":10v"
"Sel6v" ":11v"
"Sel7v" ":12v"
"WL<127>v" ":13v"
"WL<126>v" ":14v"
"WL<125>v" ":15v"
"WL<124>v" ":16v"
"WL<123>v" ":17v"
"WL<122>v" ":18v"
"WL<121>v" ":19v"
"WL<120>v" ":20v"
"WL<119>v" ":21v"
"WL<118>v" ":22v"
"WL<117>v" ":23v"
"WL<116>v" ":24v"
"WL<115>v" ":25v"
"WL<114>v" ":26v"
"WL<113>v" ":27v"
"WL<112>v" ":28v"
"WL<111>v" ":29v"
"WL<110>v" ":30v"
"WL<109>v" ":31v"
"WL<108>v" ":32v"
"WL<107>v" ":33v"
"WL<106>v" ":34v"
"WL<105>v" ":35v"
"WL<104>v" ":36v"
"WL<103>v" ":37v"
"WL<102>v" ":38v"
"WL<101>v" ":39v"
"WL<100>v" ":40v"
"WL<99>v" ":41v"
"WL<98>v" ":42v"
"WL<97>v" ":43v"
"WL<96>v" ":44v"
"WL<95>v" ":45v"
"WL<94>v" ":46v"
"WL<93>v" ":47v"
"WL<92>v" ":48v"
"WL<91>v" ":49v"
"WL<90>v" ":50v"
"WL<89>v" ":51v"
"WL<88>v" ":52v"
"WL<87>v" ":53v"
"WL<86>v" ":54v"
"WL<85>v" ":55v"
"WL<84>v" ":56v"
"WL<83>v" ":57v"
"WL<82>v" ":58v"
"WL<81>v" ":59v"
"WL<80>v" ":60v"
"WL<79>v" ":61v"
"WL<78>v" ":62v"
"WL<77>v" ":63v"
"WL<76>v" ":64v"
"WL<75>v" ":65v"
"WL<74>v" ":66v"
"WL<73>v" ":67v"
"WL<72>v" ":68v"
"WL<71>v" ":69v"
"WL<70>v" ":70v"
"WL<69>v" ":71v"
"WL<68>v" ":72v"
"WL<67>v" ":73v"
"WL<66>v" ":74v"
"WL<65>v" ":75v"
"WL<64>v" ":76v"
"WL<63>v" ":77v"
"WL<62>v" ":78v"
"WL<61>v" ":79v"
"WL<60>v" ":80v"
"WL<59>v" ":81v"
"WL<58>v" ":82v"
"WL<57>v" ":83v"
"WL<56>v" ":84v"
"WL<55>v" ":85v"
"WL<54>v" ":86v"
"WL<53>v" ":87v"
"WL<52>v" ":88v"
"WL<51>v" ":89v"
"WL<50>v" ":90v"
"WL<49>v" ":91v"
"WL<48>v" ":92v"
"WL<47>v" ":93v"
"WL<46>v" ":94v"
"WL<45>v" ":95v"
"WL<44>v" ":96v"
"WL<43>v" ":97v"
"WL<42>v" ":98v"
"WL<41>v" ":99v"
"WL<40>v" ":100v"
"WL<39>v" ":101v"
"WL<38>v" ":102v"
"WL<37>v" ":103v"
"WL<36>v" ":104v"
"WL<35>v" ":105v"
"WL<34>v" ":106v"
"WL<33>v" ":107v"
"WL<32>v" ":108v"
"WL<31>v" ":109v"
"WL<30>v" ":110v"
"WL<29>v" ":111v"
"WL<28>v" ":112v"
"WL<27>v" ":113v"
"WL<26>v" ":114v"
"WL<25>v" ":115v"
"WL<24>v" ":116v"
"WL<23>v" ":117v"
"WL<22>v" ":118v"
"WL<21>v" ":119v"
"WL<20>v" ":120v"
"WL<19>v" ":121v"
"WL<18>v" ":122v"
"WL<17>v" ":123v"
"WL<16>v" ":124v"
"WL<15>v" ":125v"
"WL<14>v" ":126v"
"WL<13>v" ":127v"
"WL<12>v" ":128v"
"WL<11>v" ":129v"
"WL<10>v" ":130v"
"WL<9>v" ":131v"
"WL<8>v" ":132v"
"WL<7>v" ":133v"
"WL<6>v" ":134v"
"WL<5>v" ":135v"
"WL<4>v" ":136v"
"WL<3>v" ":137v"
"WL<2>v" ":138v"
"WL<1>v" ":139v"
"WL<0>v" ":140v"
