HEADER
"PSFversion" "1.00"
"GND!v" "GND!v"
"gnd!v" "0v"
"vdd!v" "vdd!v"
