HEADER
"PSFversion" "1.00"
"__NEXT_FILE__" "RowDecoder_256_1xP_TB"
