HEADER
"PSFversion" "1.00"
"R0n" "analogLib_res_spectre"
"Cwiren" "analogLib_cap_spectre"
"I0<31>n I0<30>n I0<29>n I0<28>n I0<27>n I0<26>n I0<25>n I0<24>n I0<23>n I0<22>n I0<21>n I0<20>n I0<19>n I0<18>n I0<17>n I0<16>n I0<15>n I0<14>n I0<13>n I0<12>n I0<11>n I0<10>n I0<9>n I0<8>n I0<7>n I0<6>n I0<5>n I0<4>n I0<3>n I0<2>n I0<1>n I0<0>n" "BitCellLoad_L"
"WLv" ":1v"
