HEADER
"PSFversion" "1.00"
"I2<1>n I2<0>n" "Post_L0_1t8"
"Sel0<1>v" ":1v"
"Sel0<0>v" ":2v"
"Sel1v" ":3v"
"Sel2v" ":4v"
"Sel3v" ":5v"
"Sel4v" ":6v"
"Sel5v" ":7v"
"Sel6v" ":8v"
"Sel7v" ":9v"
"WL<15>v" ":10v"
"WL<14>v" ":11v"
"WL<13>v" ":12v"
"WL<12>v" ":13v"
"WL<11>v" ":14v"
"WL<10>v" ":15v"
"WL<9>v" ":16v"
"WL<8>v" ":17v"
"WL<7>v" ":18v"
"WL<6>v" ":19v"
"WL<5>v" ":20v"
"WL<4>v" ":21v"
"WL<3>v" ":22v"
"WL<2>v" ":23v"
"WL<1>v" ":24v"
"WL<0>v" ":25v"
