HEADER
"PSFversion" "1.00"
"Time Stamp" "Dec 22 00:14:59 2022"
TYPE
"variable" STRUCT(
"value" FLOAT DOUBLE
) PROP( "key" "element" )
VALUE
"cap_val" "variable" ( 0 ) PROP( )
"temp" "variable" ( 27 ) PROP( )
END
