HEADER
"PSFversion" "1.00"
"I2<1>n I2<0>n" "Post_L7_128t8"
"Rwire7<1>n Rwire7<0>n Rwire0<1>n Rwire0<0>n Rwire1<1>n Rwire1<0>n Rwire2<1>n Rwire2<0>n Rwire3<1>n Rwire3<0>n Rwire4<1>n Rwire4<0>n Rwire5<1>n Rwire5<0>n Rwire6<1>n Rwire6<0>n" "analogLib_res_spectre"
"Cwire0<1>n Cwire0<0>n Cwire1<1>n Cwire1<0>n Cwire2<1>n Cwire2<0>n Cwire3<1>n Cwire3<0>n Cwire4<1>n Cwire4<0>n Cwire5<1>n Cwire5<0>n Cwire6<1>n Cwire6<0>n Cwire7<1>n Cwire7<0>n" "analogLib_cap_spectre"
"SEL0<1>v" ":1v"
"SEL0<0>v" ":2v"
"SEL1<1>v" ":3v"
"SEL1<0>v" ":4v"
"SEL2<1>v" ":5v"
"SEL2<0>v" ":6v"
"SEL3<1>v" ":7v"
"SEL3<0>v" ":8v"
"SEL4<1>v" ":9v"
"SEL4<0>v" ":10v"
"SEL5<1>v" ":11v"
"SEL5<0>v" ":12v"
"SEL6<1>v" ":13v"
"SEL6<0>v" ":14v"
"SEL7<1>v" ":15v"
"SEL7<0>v" ":16v"
"WLSEL<2047>v" ":17v"
"WLSEL<2046>v" ":18v"
"WLSEL<2045>v" ":19v"
"WLSEL<2044>v" ":20v"
"WLSEL<2043>v" ":21v"
"WLSEL<2042>v" ":22v"
"WLSEL<2041>v" ":23v"
"WLSEL<2040>v" ":24v"
"WLSEL<2039>v" ":25v"
"WLSEL<2038>v" ":26v"
"WLSEL<2037>v" ":27v"
"WLSEL<2036>v" ":28v"
"WLSEL<2035>v" ":29v"
"WLSEL<2034>v" ":30v"
"WLSEL<2033>v" ":31v"
"WLSEL<2032>v" ":32v"
"WLSEL<2031>v" ":33v"
"WLSEL<2030>v" ":34v"
"WLSEL<2029>v" ":35v"
"WLSEL<2028>v" ":36v"
"WLSEL<2027>v" ":37v"
"WLSEL<2026>v" ":38v"
"WLSEL<2025>v" ":39v"
"WLSEL<2024>v" ":40v"
"WLSEL<2023>v" ":41v"
"WLSEL<2022>v" ":42v"
"WLSEL<2021>v" ":43v"
"WLSEL<2020>v" ":44v"
"WLSEL<2019>v" ":45v"
"WLSEL<2018>v" ":46v"
"WLSEL<2017>v" ":47v"
"WLSEL<2016>v" ":48v"
"WLSEL<2015>v" ":49v"
"WLSEL<2014>v" ":50v"
"WLSEL<2013>v" ":51v"
"WLSEL<2012>v" ":52v"
"WLSEL<2011>v" ":53v"
"WLSEL<2010>v" ":54v"
"WLSEL<2009>v" ":55v"
"WLSEL<2008>v" ":56v"
"WLSEL<2007>v" ":57v"
"WLSEL<2006>v" ":58v"
"WLSEL<2005>v" ":59v"
"WLSEL<2004>v" ":60v"
"WLSEL<2003>v" ":61v"
"WLSEL<2002>v" ":62v"
"WLSEL<2001>v" ":63v"
"WLSEL<2000>v" ":64v"
"WLSEL<1999>v" ":65v"
"WLSEL<1998>v" ":66v"
"WLSEL<1997>v" ":67v"
"WLSEL<1996>v" ":68v"
"WLSEL<1995>v" ":69v"
"WLSEL<1994>v" ":70v"
"WLSEL<1993>v" ":71v"
"WLSEL<1992>v" ":72v"
"WLSEL<1991>v" ":73v"
"WLSEL<1990>v" ":74v"
"WLSEL<1989>v" ":75v"
"WLSEL<1988>v" ":76v"
"WLSEL<1987>v" ":77v"
"WLSEL<1986>v" ":78v"
"WLSEL<1985>v" ":79v"
"WLSEL<1984>v" ":80v"
"WLSEL<1983>v" ":81v"
"WLSEL<1982>v" ":82v"
"WLSEL<1981>v" ":83v"
"WLSEL<1980>v" ":84v"
"WLSEL<1979>v" ":85v"
"WLSEL<1978>v" ":86v"
"WLSEL<1977>v" ":87v"
"WLSEL<1976>v" ":88v"
"WLSEL<1975>v" ":89v"
"WLSEL<1974>v" ":90v"
"WLSEL<1973>v" ":91v"
"WLSEL<1972>v" ":92v"
"WLSEL<1971>v" ":93v"
"WLSEL<1970>v" ":94v"
"WLSEL<1969>v" ":95v"
"WLSEL<1968>v" ":96v"
"WLSEL<1967>v" ":97v"
"WLSEL<1966>v" ":98v"
"WLSEL<1965>v" ":99v"
"WLSEL<1964>v" ":100v"
"WLSEL<1963>v" ":101v"
"WLSEL<1962>v" ":102v"
"WLSEL<1961>v" ":103v"
"WLSEL<1960>v" ":104v"
"WLSEL<1959>v" ":105v"
"WLSEL<1958>v" ":106v"
"WLSEL<1957>v" ":107v"
"WLSEL<1956>v" ":108v"
"WLSEL<1955>v" ":109v"
"WLSEL<1954>v" ":110v"
"WLSEL<1953>v" ":111v"
"WLSEL<1952>v" ":112v"
"WLSEL<1951>v" ":113v"
"WLSEL<1950>v" ":114v"
"WLSEL<1949>v" ":115v"
"WLSEL<1948>v" ":116v"
"WLSEL<1947>v" ":117v"
"WLSEL<1946>v" ":118v"
"WLSEL<1945>v" ":119v"
"WLSEL<1944>v" ":120v"
"WLSEL<1943>v" ":121v"
"WLSEL<1942>v" ":122v"
"WLSEL<1941>v" ":123v"
"WLSEL<1940>v" ":124v"
"WLSEL<1939>v" ":125v"
"WLSEL<1938>v" ":126v"
"WLSEL<1937>v" ":127v"
"WLSEL<1936>v" ":128v"
"WLSEL<1935>v" ":129v"
"WLSEL<1934>v" ":130v"
"WLSEL<1933>v" ":131v"
"WLSEL<1932>v" ":132v"
"WLSEL<1931>v" ":133v"
"WLSEL<1930>v" ":134v"
"WLSEL<1929>v" ":135v"
"WLSEL<1928>v" ":136v"
"WLSEL<1927>v" ":137v"
"WLSEL<1926>v" ":138v"
"WLSEL<1925>v" ":139v"
"WLSEL<1924>v" ":140v"
"WLSEL<1923>v" ":141v"
"WLSEL<1922>v" ":142v"
"WLSEL<1921>v" ":143v"
"WLSEL<1920>v" ":144v"
"WLSEL<1919>v" ":145v"
"WLSEL<1918>v" ":146v"
"WLSEL<1917>v" ":147v"
"WLSEL<1916>v" ":148v"
"WLSEL<1915>v" ":149v"
"WLSEL<1914>v" ":150v"
"WLSEL<1913>v" ":151v"
"WLSEL<1912>v" ":152v"
"WLSEL<1911>v" ":153v"
"WLSEL<1910>v" ":154v"
"WLSEL<1909>v" ":155v"
"WLSEL<1908>v" ":156v"
"WLSEL<1907>v" ":157v"
"WLSEL<1906>v" ":158v"
"WLSEL<1905>v" ":159v"
"WLSEL<1904>v" ":160v"
"WLSEL<1903>v" ":161v"
"WLSEL<1902>v" ":162v"
"WLSEL<1901>v" ":163v"
"WLSEL<1900>v" ":164v"
"WLSEL<1899>v" ":165v"
"WLSEL<1898>v" ":166v"
"WLSEL<1897>v" ":167v"
"WLSEL<1896>v" ":168v"
"WLSEL<1895>v" ":169v"
"WLSEL<1894>v" ":170v"
"WLSEL<1893>v" ":171v"
"WLSEL<1892>v" ":172v"
"WLSEL<1891>v" ":173v"
"WLSEL<1890>v" ":174v"
"WLSEL<1889>v" ":175v"
"WLSEL<1888>v" ":176v"
"WLSEL<1887>v" ":177v"
"WLSEL<1886>v" ":178v"
"WLSEL<1885>v" ":179v"
"WLSEL<1884>v" ":180v"
"WLSEL<1883>v" ":181v"
"WLSEL<1882>v" ":182v"
"WLSEL<1881>v" ":183v"
"WLSEL<1880>v" ":184v"
"WLSEL<1879>v" ":185v"
"WLSEL<1878>v" ":186v"
"WLSEL<1877>v" ":187v"
"WLSEL<1876>v" ":188v"
"WLSEL<1875>v" ":189v"
"WLSEL<1874>v" ":190v"
"WLSEL<1873>v" ":191v"
"WLSEL<1872>v" ":192v"
"WLSEL<1871>v" ":193v"
"WLSEL<1870>v" ":194v"
"WLSEL<1869>v" ":195v"
"WLSEL<1868>v" ":196v"
"WLSEL<1867>v" ":197v"
"WLSEL<1866>v" ":198v"
"WLSEL<1865>v" ":199v"
"WLSEL<1864>v" ":200v"
"WLSEL<1863>v" ":201v"
"WLSEL<1862>v" ":202v"
"WLSEL<1861>v" ":203v"
"WLSEL<1860>v" ":204v"
"WLSEL<1859>v" ":205v"
"WLSEL<1858>v" ":206v"
"WLSEL<1857>v" ":207v"
"WLSEL<1856>v" ":208v"
"WLSEL<1855>v" ":209v"
"WLSEL<1854>v" ":210v"
"WLSEL<1853>v" ":211v"
"WLSEL<1852>v" ":212v"
"WLSEL<1851>v" ":213v"
"WLSEL<1850>v" ":214v"
"WLSEL<1849>v" ":215v"
"WLSEL<1848>v" ":216v"
"WLSEL<1847>v" ":217v"
"WLSEL<1846>v" ":218v"
"WLSEL<1845>v" ":219v"
"WLSEL<1844>v" ":220v"
"WLSEL<1843>v" ":221v"
"WLSEL<1842>v" ":222v"
"WLSEL<1841>v" ":223v"
"WLSEL<1840>v" ":224v"
"WLSEL<1839>v" ":225v"
"WLSEL<1838>v" ":226v"
"WLSEL<1837>v" ":227v"
"WLSEL<1836>v" ":228v"
"WLSEL<1835>v" ":229v"
"WLSEL<1834>v" ":230v"
"WLSEL<1833>v" ":231v"
"WLSEL<1832>v" ":232v"
"WLSEL<1831>v" ":233v"
"WLSEL<1830>v" ":234v"
"WLSEL<1829>v" ":235v"
"WLSEL<1828>v" ":236v"
"WLSEL<1827>v" ":237v"
"WLSEL<1826>v" ":238v"
"WLSEL<1825>v" ":239v"
"WLSEL<1824>v" ":240v"
"WLSEL<1823>v" ":241v"
"WLSEL<1822>v" ":242v"
"WLSEL<1821>v" ":243v"
"WLSEL<1820>v" ":244v"
"WLSEL<1819>v" ":245v"
"WLSEL<1818>v" ":246v"
"WLSEL<1817>v" ":247v"
"WLSEL<1816>v" ":248v"
"WLSEL<1815>v" ":249v"
"WLSEL<1814>v" ":250v"
"WLSEL<1813>v" ":251v"
"WLSEL<1812>v" ":252v"
"WLSEL<1811>v" ":253v"
"WLSEL<1810>v" ":254v"
"WLSEL<1809>v" ":255v"
"WLSEL<1808>v" ":256v"
"WLSEL<1807>v" ":257v"
"WLSEL<1806>v" ":258v"
"WLSEL<1805>v" ":259v"
"WLSEL<1804>v" ":260v"
"WLSEL<1803>v" ":261v"
"WLSEL<1802>v" ":262v"
"WLSEL<1801>v" ":263v"
"WLSEL<1800>v" ":264v"
"WLSEL<1799>v" ":265v"
"WLSEL<1798>v" ":266v"
"WLSEL<1797>v" ":267v"
"WLSEL<1796>v" ":268v"
"WLSEL<1795>v" ":269v"
"WLSEL<1794>v" ":270v"
"WLSEL<1793>v" ":271v"
"WLSEL<1792>v" ":272v"
"WLSEL<1791>v" ":273v"
"WLSEL<1790>v" ":274v"
"WLSEL<1789>v" ":275v"
"WLSEL<1788>v" ":276v"
"WLSEL<1787>v" ":277v"
"WLSEL<1786>v" ":278v"
"WLSEL<1785>v" ":279v"
"WLSEL<1784>v" ":280v"
"WLSEL<1783>v" ":281v"
"WLSEL<1782>v" ":282v"
"WLSEL<1781>v" ":283v"
"WLSEL<1780>v" ":284v"
"WLSEL<1779>v" ":285v"
"WLSEL<1778>v" ":286v"
"WLSEL<1777>v" ":287v"
"WLSEL<1776>v" ":288v"
"WLSEL<1775>v" ":289v"
"WLSEL<1774>v" ":290v"
"WLSEL<1773>v" ":291v"
"WLSEL<1772>v" ":292v"
"WLSEL<1771>v" ":293v"
"WLSEL<1770>v" ":294v"
"WLSEL<1769>v" ":295v"
"WLSEL<1768>v" ":296v"
"WLSEL<1767>v" ":297v"
"WLSEL<1766>v" ":298v"
"WLSEL<1765>v" ":299v"
"WLSEL<1764>v" ":300v"
"WLSEL<1763>v" ":301v"
"WLSEL<1762>v" ":302v"
"WLSEL<1761>v" ":303v"
"WLSEL<1760>v" ":304v"
"WLSEL<1759>v" ":305v"
"WLSEL<1758>v" ":306v"
"WLSEL<1757>v" ":307v"
"WLSEL<1756>v" ":308v"
"WLSEL<1755>v" ":309v"
"WLSEL<1754>v" ":310v"
"WLSEL<1753>v" ":311v"
"WLSEL<1752>v" ":312v"
"WLSEL<1751>v" ":313v"
"WLSEL<1750>v" ":314v"
"WLSEL<1749>v" ":315v"
"WLSEL<1748>v" ":316v"
"WLSEL<1747>v" ":317v"
"WLSEL<1746>v" ":318v"
"WLSEL<1745>v" ":319v"
"WLSEL<1744>v" ":320v"
"WLSEL<1743>v" ":321v"
"WLSEL<1742>v" ":322v"
"WLSEL<1741>v" ":323v"
"WLSEL<1740>v" ":324v"
"WLSEL<1739>v" ":325v"
"WLSEL<1738>v" ":326v"
"WLSEL<1737>v" ":327v"
"WLSEL<1736>v" ":328v"
"WLSEL<1735>v" ":329v"
"WLSEL<1734>v" ":330v"
"WLSEL<1733>v" ":331v"
"WLSEL<1732>v" ":332v"
"WLSEL<1731>v" ":333v"
"WLSEL<1730>v" ":334v"
"WLSEL<1729>v" ":335v"
"WLSEL<1728>v" ":336v"
"WLSEL<1727>v" ":337v"
"WLSEL<1726>v" ":338v"
"WLSEL<1725>v" ":339v"
"WLSEL<1724>v" ":340v"
"WLSEL<1723>v" ":341v"
"WLSEL<1722>v" ":342v"
"WLSEL<1721>v" ":343v"
"WLSEL<1720>v" ":344v"
"WLSEL<1719>v" ":345v"
"WLSEL<1718>v" ":346v"
"WLSEL<1717>v" ":347v"
"WLSEL<1716>v" ":348v"
"WLSEL<1715>v" ":349v"
"WLSEL<1714>v" ":350v"
"WLSEL<1713>v" ":351v"
"WLSEL<1712>v" ":352v"
"WLSEL<1711>v" ":353v"
"WLSEL<1710>v" ":354v"
"WLSEL<1709>v" ":355v"
"WLSEL<1708>v" ":356v"
"WLSEL<1707>v" ":357v"
"WLSEL<1706>v" ":358v"
"WLSEL<1705>v" ":359v"
"WLSEL<1704>v" ":360v"
"WLSEL<1703>v" ":361v"
"WLSEL<1702>v" ":362v"
"WLSEL<1701>v" ":363v"
"WLSEL<1700>v" ":364v"
"WLSEL<1699>v" ":365v"
"WLSEL<1698>v" ":366v"
"WLSEL<1697>v" ":367v"
"WLSEL<1696>v" ":368v"
"WLSEL<1695>v" ":369v"
"WLSEL<1694>v" ":370v"
"WLSEL<1693>v" ":371v"
"WLSEL<1692>v" ":372v"
"WLSEL<1691>v" ":373v"
"WLSEL<1690>v" ":374v"
"WLSEL<1689>v" ":375v"
"WLSEL<1688>v" ":376v"
"WLSEL<1687>v" ":377v"
"WLSEL<1686>v" ":378v"
"WLSEL<1685>v" ":379v"
"WLSEL<1684>v" ":380v"
"WLSEL<1683>v" ":381v"
"WLSEL<1682>v" ":382v"
"WLSEL<1681>v" ":383v"
"WLSEL<1680>v" ":384v"
"WLSEL<1679>v" ":385v"
"WLSEL<1678>v" ":386v"
"WLSEL<1677>v" ":387v"
"WLSEL<1676>v" ":388v"
"WLSEL<1675>v" ":389v"
"WLSEL<1674>v" ":390v"
"WLSEL<1673>v" ":391v"
"WLSEL<1672>v" ":392v"
"WLSEL<1671>v" ":393v"
"WLSEL<1670>v" ":394v"
"WLSEL<1669>v" ":395v"
"WLSEL<1668>v" ":396v"
"WLSEL<1667>v" ":397v"
"WLSEL<1666>v" ":398v"
"WLSEL<1665>v" ":399v"
"WLSEL<1664>v" ":400v"
"WLSEL<1663>v" ":401v"
"WLSEL<1662>v" ":402v"
"WLSEL<1661>v" ":403v"
"WLSEL<1660>v" ":404v"
"WLSEL<1659>v" ":405v"
"WLSEL<1658>v" ":406v"
"WLSEL<1657>v" ":407v"
"WLSEL<1656>v" ":408v"
"WLSEL<1655>v" ":409v"
"WLSEL<1654>v" ":410v"
"WLSEL<1653>v" ":411v"
"WLSEL<1652>v" ":412v"
"WLSEL<1651>v" ":413v"
"WLSEL<1650>v" ":414v"
"WLSEL<1649>v" ":415v"
"WLSEL<1648>v" ":416v"
"WLSEL<1647>v" ":417v"
"WLSEL<1646>v" ":418v"
"WLSEL<1645>v" ":419v"
"WLSEL<1644>v" ":420v"
"WLSEL<1643>v" ":421v"
"WLSEL<1642>v" ":422v"
"WLSEL<1641>v" ":423v"
"WLSEL<1640>v" ":424v"
"WLSEL<1639>v" ":425v"
"WLSEL<1638>v" ":426v"
"WLSEL<1637>v" ":427v"
"WLSEL<1636>v" ":428v"
"WLSEL<1635>v" ":429v"
"WLSEL<1634>v" ":430v"
"WLSEL<1633>v" ":431v"
"WLSEL<1632>v" ":432v"
"WLSEL<1631>v" ":433v"
"WLSEL<1630>v" ":434v"
"WLSEL<1629>v" ":435v"
"WLSEL<1628>v" ":436v"
"WLSEL<1627>v" ":437v"
"WLSEL<1626>v" ":438v"
"WLSEL<1625>v" ":439v"
"WLSEL<1624>v" ":440v"
"WLSEL<1623>v" ":441v"
"WLSEL<1622>v" ":442v"
"WLSEL<1621>v" ":443v"
"WLSEL<1620>v" ":444v"
"WLSEL<1619>v" ":445v"
"WLSEL<1618>v" ":446v"
"WLSEL<1617>v" ":447v"
"WLSEL<1616>v" ":448v"
"WLSEL<1615>v" ":449v"
"WLSEL<1614>v" ":450v"
"WLSEL<1613>v" ":451v"
"WLSEL<1612>v" ":452v"
"WLSEL<1611>v" ":453v"
"WLSEL<1610>v" ":454v"
"WLSEL<1609>v" ":455v"
"WLSEL<1608>v" ":456v"
"WLSEL<1607>v" ":457v"
"WLSEL<1606>v" ":458v"
"WLSEL<1605>v" ":459v"
"WLSEL<1604>v" ":460v"
"WLSEL<1603>v" ":461v"
"WLSEL<1602>v" ":462v"
"WLSEL<1601>v" ":463v"
"WLSEL<1600>v" ":464v"
"WLSEL<1599>v" ":465v"
"WLSEL<1598>v" ":466v"
"WLSEL<1597>v" ":467v"
"WLSEL<1596>v" ":468v"
"WLSEL<1595>v" ":469v"
"WLSEL<1594>v" ":470v"
"WLSEL<1593>v" ":471v"
"WLSEL<1592>v" ":472v"
"WLSEL<1591>v" ":473v"
"WLSEL<1590>v" ":474v"
"WLSEL<1589>v" ":475v"
"WLSEL<1588>v" ":476v"
"WLSEL<1587>v" ":477v"
"WLSEL<1586>v" ":478v"
"WLSEL<1585>v" ":479v"
"WLSEL<1584>v" ":480v"
"WLSEL<1583>v" ":481v"
"WLSEL<1582>v" ":482v"
"WLSEL<1581>v" ":483v"
"WLSEL<1580>v" ":484v"
"WLSEL<1579>v" ":485v"
"WLSEL<1578>v" ":486v"
"WLSEL<1577>v" ":487v"
"WLSEL<1576>v" ":488v"
"WLSEL<1575>v" ":489v"
"WLSEL<1574>v" ":490v"
"WLSEL<1573>v" ":491v"
"WLSEL<1572>v" ":492v"
"WLSEL<1571>v" ":493v"
"WLSEL<1570>v" ":494v"
"WLSEL<1569>v" ":495v"
"WLSEL<1568>v" ":496v"
"WLSEL<1567>v" ":497v"
"WLSEL<1566>v" ":498v"
"WLSEL<1565>v" ":499v"
"WLSEL<1564>v" ":500v"
"WLSEL<1563>v" ":501v"
"WLSEL<1562>v" ":502v"
"WLSEL<1561>v" ":503v"
"WLSEL<1560>v" ":504v"
"WLSEL<1559>v" ":505v"
"WLSEL<1558>v" ":506v"
"WLSEL<1557>v" ":507v"
"WLSEL<1556>v" ":508v"
"WLSEL<1555>v" ":509v"
"WLSEL<1554>v" ":510v"
"WLSEL<1553>v" ":511v"
"WLSEL<1552>v" ":512v"
"WLSEL<1551>v" ":513v"
"WLSEL<1550>v" ":514v"
"WLSEL<1549>v" ":515v"
"WLSEL<1548>v" ":516v"
"WLSEL<1547>v" ":517v"
"WLSEL<1546>v" ":518v"
"WLSEL<1545>v" ":519v"
"WLSEL<1544>v" ":520v"
"WLSEL<1543>v" ":521v"
"WLSEL<1542>v" ":522v"
"WLSEL<1541>v" ":523v"
"WLSEL<1540>v" ":524v"
"WLSEL<1539>v" ":525v"
"WLSEL<1538>v" ":526v"
"WLSEL<1537>v" ":527v"
"WLSEL<1536>v" ":528v"
"WLSEL<1535>v" ":529v"
"WLSEL<1534>v" ":530v"
"WLSEL<1533>v" ":531v"
"WLSEL<1532>v" ":532v"
"WLSEL<1531>v" ":533v"
"WLSEL<1530>v" ":534v"
"WLSEL<1529>v" ":535v"
"WLSEL<1528>v" ":536v"
"WLSEL<1527>v" ":537v"
"WLSEL<1526>v" ":538v"
"WLSEL<1525>v" ":539v"
"WLSEL<1524>v" ":540v"
"WLSEL<1523>v" ":541v"
"WLSEL<1522>v" ":542v"
"WLSEL<1521>v" ":543v"
"WLSEL<1520>v" ":544v"
"WLSEL<1519>v" ":545v"
"WLSEL<1518>v" ":546v"
"WLSEL<1517>v" ":547v"
"WLSEL<1516>v" ":548v"
"WLSEL<1515>v" ":549v"
"WLSEL<1514>v" ":550v"
"WLSEL<1513>v" ":551v"
"WLSEL<1512>v" ":552v"
"WLSEL<1511>v" ":553v"
"WLSEL<1510>v" ":554v"
"WLSEL<1509>v" ":555v"
"WLSEL<1508>v" ":556v"
"WLSEL<1507>v" ":557v"
"WLSEL<1506>v" ":558v"
"WLSEL<1505>v" ":559v"
"WLSEL<1504>v" ":560v"
"WLSEL<1503>v" ":561v"
"WLSEL<1502>v" ":562v"
"WLSEL<1501>v" ":563v"
"WLSEL<1500>v" ":564v"
"WLSEL<1499>v" ":565v"
"WLSEL<1498>v" ":566v"
"WLSEL<1497>v" ":567v"
"WLSEL<1496>v" ":568v"
"WLSEL<1495>v" ":569v"
"WLSEL<1494>v" ":570v"
"WLSEL<1493>v" ":571v"
"WLSEL<1492>v" ":572v"
"WLSEL<1491>v" ":573v"
"WLSEL<1490>v" ":574v"
"WLSEL<1489>v" ":575v"
"WLSEL<1488>v" ":576v"
"WLSEL<1487>v" ":577v"
"WLSEL<1486>v" ":578v"
"WLSEL<1485>v" ":579v"
"WLSEL<1484>v" ":580v"
"WLSEL<1483>v" ":581v"
"WLSEL<1482>v" ":582v"
"WLSEL<1481>v" ":583v"
"WLSEL<1480>v" ":584v"
"WLSEL<1479>v" ":585v"
"WLSEL<1478>v" ":586v"
"WLSEL<1477>v" ":587v"
"WLSEL<1476>v" ":588v"
"WLSEL<1475>v" ":589v"
"WLSEL<1474>v" ":590v"
"WLSEL<1473>v" ":591v"
"WLSEL<1472>v" ":592v"
"WLSEL<1471>v" ":593v"
"WLSEL<1470>v" ":594v"
"WLSEL<1469>v" ":595v"
"WLSEL<1468>v" ":596v"
"WLSEL<1467>v" ":597v"
"WLSEL<1466>v" ":598v"
"WLSEL<1465>v" ":599v"
"WLSEL<1464>v" ":600v"
"WLSEL<1463>v" ":601v"
"WLSEL<1462>v" ":602v"
"WLSEL<1461>v" ":603v"
"WLSEL<1460>v" ":604v"
"WLSEL<1459>v" ":605v"
"WLSEL<1458>v" ":606v"
"WLSEL<1457>v" ":607v"
"WLSEL<1456>v" ":608v"
"WLSEL<1455>v" ":609v"
"WLSEL<1454>v" ":610v"
"WLSEL<1453>v" ":611v"
"WLSEL<1452>v" ":612v"
"WLSEL<1451>v" ":613v"
"WLSEL<1450>v" ":614v"
"WLSEL<1449>v" ":615v"
"WLSEL<1448>v" ":616v"
"WLSEL<1447>v" ":617v"
"WLSEL<1446>v" ":618v"
"WLSEL<1445>v" ":619v"
"WLSEL<1444>v" ":620v"
"WLSEL<1443>v" ":621v"
"WLSEL<1442>v" ":622v"
"WLSEL<1441>v" ":623v"
"WLSEL<1440>v" ":624v"
"WLSEL<1439>v" ":625v"
"WLSEL<1438>v" ":626v"
"WLSEL<1437>v" ":627v"
"WLSEL<1436>v" ":628v"
"WLSEL<1435>v" ":629v"
"WLSEL<1434>v" ":630v"
"WLSEL<1433>v" ":631v"
"WLSEL<1432>v" ":632v"
"WLSEL<1431>v" ":633v"
"WLSEL<1430>v" ":634v"
"WLSEL<1429>v" ":635v"
"WLSEL<1428>v" ":636v"
"WLSEL<1427>v" ":637v"
"WLSEL<1426>v" ":638v"
"WLSEL<1425>v" ":639v"
"WLSEL<1424>v" ":640v"
"WLSEL<1423>v" ":641v"
"WLSEL<1422>v" ":642v"
"WLSEL<1421>v" ":643v"
"WLSEL<1420>v" ":644v"
"WLSEL<1419>v" ":645v"
"WLSEL<1418>v" ":646v"
"WLSEL<1417>v" ":647v"
"WLSEL<1416>v" ":648v"
"WLSEL<1415>v" ":649v"
"WLSEL<1414>v" ":650v"
"WLSEL<1413>v" ":651v"
"WLSEL<1412>v" ":652v"
"WLSEL<1411>v" ":653v"
"WLSEL<1410>v" ":654v"
"WLSEL<1409>v" ":655v"
"WLSEL<1408>v" ":656v"
"WLSEL<1407>v" ":657v"
"WLSEL<1406>v" ":658v"
"WLSEL<1405>v" ":659v"
"WLSEL<1404>v" ":660v"
"WLSEL<1403>v" ":661v"
"WLSEL<1402>v" ":662v"
"WLSEL<1401>v" ":663v"
"WLSEL<1400>v" ":664v"
"WLSEL<1399>v" ":665v"
"WLSEL<1398>v" ":666v"
"WLSEL<1397>v" ":667v"
"WLSEL<1396>v" ":668v"
"WLSEL<1395>v" ":669v"
"WLSEL<1394>v" ":670v"
"WLSEL<1393>v" ":671v"
"WLSEL<1392>v" ":672v"
"WLSEL<1391>v" ":673v"
"WLSEL<1390>v" ":674v"
"WLSEL<1389>v" ":675v"
"WLSEL<1388>v" ":676v"
"WLSEL<1387>v" ":677v"
"WLSEL<1386>v" ":678v"
"WLSEL<1385>v" ":679v"
"WLSEL<1384>v" ":680v"
"WLSEL<1383>v" ":681v"
"WLSEL<1382>v" ":682v"
"WLSEL<1381>v" ":683v"
"WLSEL<1380>v" ":684v"
"WLSEL<1379>v" ":685v"
"WLSEL<1378>v" ":686v"
"WLSEL<1377>v" ":687v"
"WLSEL<1376>v" ":688v"
"WLSEL<1375>v" ":689v"
"WLSEL<1374>v" ":690v"
"WLSEL<1373>v" ":691v"
"WLSEL<1372>v" ":692v"
"WLSEL<1371>v" ":693v"
"WLSEL<1370>v" ":694v"
"WLSEL<1369>v" ":695v"
"WLSEL<1368>v" ":696v"
"WLSEL<1367>v" ":697v"
"WLSEL<1366>v" ":698v"
"WLSEL<1365>v" ":699v"
"WLSEL<1364>v" ":700v"
"WLSEL<1363>v" ":701v"
"WLSEL<1362>v" ":702v"
"WLSEL<1361>v" ":703v"
"WLSEL<1360>v" ":704v"
"WLSEL<1359>v" ":705v"
"WLSEL<1358>v" ":706v"
"WLSEL<1357>v" ":707v"
"WLSEL<1356>v" ":708v"
"WLSEL<1355>v" ":709v"
"WLSEL<1354>v" ":710v"
"WLSEL<1353>v" ":711v"
"WLSEL<1352>v" ":712v"
"WLSEL<1351>v" ":713v"
"WLSEL<1350>v" ":714v"
"WLSEL<1349>v" ":715v"
"WLSEL<1348>v" ":716v"
"WLSEL<1347>v" ":717v"
"WLSEL<1346>v" ":718v"
"WLSEL<1345>v" ":719v"
"WLSEL<1344>v" ":720v"
"WLSEL<1343>v" ":721v"
"WLSEL<1342>v" ":722v"
"WLSEL<1341>v" ":723v"
"WLSEL<1340>v" ":724v"
"WLSEL<1339>v" ":725v"
"WLSEL<1338>v" ":726v"
"WLSEL<1337>v" ":727v"
"WLSEL<1336>v" ":728v"
"WLSEL<1335>v" ":729v"
"WLSEL<1334>v" ":730v"
"WLSEL<1333>v" ":731v"
"WLSEL<1332>v" ":732v"
"WLSEL<1331>v" ":733v"
"WLSEL<1330>v" ":734v"
"WLSEL<1329>v" ":735v"
"WLSEL<1328>v" ":736v"
"WLSEL<1327>v" ":737v"
"WLSEL<1326>v" ":738v"
"WLSEL<1325>v" ":739v"
"WLSEL<1324>v" ":740v"
"WLSEL<1323>v" ":741v"
"WLSEL<1322>v" ":742v"
"WLSEL<1321>v" ":743v"
"WLSEL<1320>v" ":744v"
"WLSEL<1319>v" ":745v"
"WLSEL<1318>v" ":746v"
"WLSEL<1317>v" ":747v"
"WLSEL<1316>v" ":748v"
"WLSEL<1315>v" ":749v"
"WLSEL<1314>v" ":750v"
"WLSEL<1313>v" ":751v"
"WLSEL<1312>v" ":752v"
"WLSEL<1311>v" ":753v"
"WLSEL<1310>v" ":754v"
"WLSEL<1309>v" ":755v"
"WLSEL<1308>v" ":756v"
"WLSEL<1307>v" ":757v"
"WLSEL<1306>v" ":758v"
"WLSEL<1305>v" ":759v"
"WLSEL<1304>v" ":760v"
"WLSEL<1303>v" ":761v"
"WLSEL<1302>v" ":762v"
"WLSEL<1301>v" ":763v"
"WLSEL<1300>v" ":764v"
"WLSEL<1299>v" ":765v"
"WLSEL<1298>v" ":766v"
"WLSEL<1297>v" ":767v"
"WLSEL<1296>v" ":768v"
"WLSEL<1295>v" ":769v"
"WLSEL<1294>v" ":770v"
"WLSEL<1293>v" ":771v"
"WLSEL<1292>v" ":772v"
"WLSEL<1291>v" ":773v"
"WLSEL<1290>v" ":774v"
"WLSEL<1289>v" ":775v"
"WLSEL<1288>v" ":776v"
"WLSEL<1287>v" ":777v"
"WLSEL<1286>v" ":778v"
"WLSEL<1285>v" ":779v"
"WLSEL<1284>v" ":780v"
"WLSEL<1283>v" ":781v"
"WLSEL<1282>v" ":782v"
"WLSEL<1281>v" ":783v"
"WLSEL<1280>v" ":784v"
"WLSEL<1279>v" ":785v"
"WLSEL<1278>v" ":786v"
"WLSEL<1277>v" ":787v"
"WLSEL<1276>v" ":788v"
"WLSEL<1275>v" ":789v"
"WLSEL<1274>v" ":790v"
"WLSEL<1273>v" ":791v"
"WLSEL<1272>v" ":792v"
"WLSEL<1271>v" ":793v"
"WLSEL<1270>v" ":794v"
"WLSEL<1269>v" ":795v"
"WLSEL<1268>v" ":796v"
"WLSEL<1267>v" ":797v"
"WLSEL<1266>v" ":798v"
"WLSEL<1265>v" ":799v"
"WLSEL<1264>v" ":800v"
"WLSEL<1263>v" ":801v"
"WLSEL<1262>v" ":802v"
"WLSEL<1261>v" ":803v"
"WLSEL<1260>v" ":804v"
"WLSEL<1259>v" ":805v"
"WLSEL<1258>v" ":806v"
"WLSEL<1257>v" ":807v"
"WLSEL<1256>v" ":808v"
"WLSEL<1255>v" ":809v"
"WLSEL<1254>v" ":810v"
"WLSEL<1253>v" ":811v"
"WLSEL<1252>v" ":812v"
"WLSEL<1251>v" ":813v"
"WLSEL<1250>v" ":814v"
"WLSEL<1249>v" ":815v"
"WLSEL<1248>v" ":816v"
"WLSEL<1247>v" ":817v"
"WLSEL<1246>v" ":818v"
"WLSEL<1245>v" ":819v"
"WLSEL<1244>v" ":820v"
"WLSEL<1243>v" ":821v"
"WLSEL<1242>v" ":822v"
"WLSEL<1241>v" ":823v"
"WLSEL<1240>v" ":824v"
"WLSEL<1239>v" ":825v"
"WLSEL<1238>v" ":826v"
"WLSEL<1237>v" ":827v"
"WLSEL<1236>v" ":828v"
"WLSEL<1235>v" ":829v"
"WLSEL<1234>v" ":830v"
"WLSEL<1233>v" ":831v"
"WLSEL<1232>v" ":832v"
"WLSEL<1231>v" ":833v"
"WLSEL<1230>v" ":834v"
"WLSEL<1229>v" ":835v"
"WLSEL<1228>v" ":836v"
"WLSEL<1227>v" ":837v"
"WLSEL<1226>v" ":838v"
"WLSEL<1225>v" ":839v"
"WLSEL<1224>v" ":840v"
"WLSEL<1223>v" ":841v"
"WLSEL<1222>v" ":842v"
"WLSEL<1221>v" ":843v"
"WLSEL<1220>v" ":844v"
"WLSEL<1219>v" ":845v"
"WLSEL<1218>v" ":846v"
"WLSEL<1217>v" ":847v"
"WLSEL<1216>v" ":848v"
"WLSEL<1215>v" ":849v"
"WLSEL<1214>v" ":850v"
"WLSEL<1213>v" ":851v"
"WLSEL<1212>v" ":852v"
"WLSEL<1211>v" ":853v"
"WLSEL<1210>v" ":854v"
"WLSEL<1209>v" ":855v"
"WLSEL<1208>v" ":856v"
"WLSEL<1207>v" ":857v"
"WLSEL<1206>v" ":858v"
"WLSEL<1205>v" ":859v"
"WLSEL<1204>v" ":860v"
"WLSEL<1203>v" ":861v"
"WLSEL<1202>v" ":862v"
"WLSEL<1201>v" ":863v"
"WLSEL<1200>v" ":864v"
"WLSEL<1199>v" ":865v"
"WLSEL<1198>v" ":866v"
"WLSEL<1197>v" ":867v"
"WLSEL<1196>v" ":868v"
"WLSEL<1195>v" ":869v"
"WLSEL<1194>v" ":870v"
"WLSEL<1193>v" ":871v"
"WLSEL<1192>v" ":872v"
"WLSEL<1191>v" ":873v"
"WLSEL<1190>v" ":874v"
"WLSEL<1189>v" ":875v"
"WLSEL<1188>v" ":876v"
"WLSEL<1187>v" ":877v"
"WLSEL<1186>v" ":878v"
"WLSEL<1185>v" ":879v"
"WLSEL<1184>v" ":880v"
"WLSEL<1183>v" ":881v"
"WLSEL<1182>v" ":882v"
"WLSEL<1181>v" ":883v"
"WLSEL<1180>v" ":884v"
"WLSEL<1179>v" ":885v"
"WLSEL<1178>v" ":886v"
"WLSEL<1177>v" ":887v"
"WLSEL<1176>v" ":888v"
"WLSEL<1175>v" ":889v"
"WLSEL<1174>v" ":890v"
"WLSEL<1173>v" ":891v"
"WLSEL<1172>v" ":892v"
"WLSEL<1171>v" ":893v"
"WLSEL<1170>v" ":894v"
"WLSEL<1169>v" ":895v"
"WLSEL<1168>v" ":896v"
"WLSEL<1167>v" ":897v"
"WLSEL<1166>v" ":898v"
"WLSEL<1165>v" ":899v"
"WLSEL<1164>v" ":900v"
"WLSEL<1163>v" ":901v"
"WLSEL<1162>v" ":902v"
"WLSEL<1161>v" ":903v"
"WLSEL<1160>v" ":904v"
"WLSEL<1159>v" ":905v"
"WLSEL<1158>v" ":906v"
"WLSEL<1157>v" ":907v"
"WLSEL<1156>v" ":908v"
"WLSEL<1155>v" ":909v"
"WLSEL<1154>v" ":910v"
"WLSEL<1153>v" ":911v"
"WLSEL<1152>v" ":912v"
"WLSEL<1151>v" ":913v"
"WLSEL<1150>v" ":914v"
"WLSEL<1149>v" ":915v"
"WLSEL<1148>v" ":916v"
"WLSEL<1147>v" ":917v"
"WLSEL<1146>v" ":918v"
"WLSEL<1145>v" ":919v"
"WLSEL<1144>v" ":920v"
"WLSEL<1143>v" ":921v"
"WLSEL<1142>v" ":922v"
"WLSEL<1141>v" ":923v"
"WLSEL<1140>v" ":924v"
"WLSEL<1139>v" ":925v"
"WLSEL<1138>v" ":926v"
"WLSEL<1137>v" ":927v"
"WLSEL<1136>v" ":928v"
"WLSEL<1135>v" ":929v"
"WLSEL<1134>v" ":930v"
"WLSEL<1133>v" ":931v"
"WLSEL<1132>v" ":932v"
"WLSEL<1131>v" ":933v"
"WLSEL<1130>v" ":934v"
"WLSEL<1129>v" ":935v"
"WLSEL<1128>v" ":936v"
"WLSEL<1127>v" ":937v"
"WLSEL<1126>v" ":938v"
"WLSEL<1125>v" ":939v"
"WLSEL<1124>v" ":940v"
"WLSEL<1123>v" ":941v"
"WLSEL<1122>v" ":942v"
"WLSEL<1121>v" ":943v"
"WLSEL<1120>v" ":944v"
"WLSEL<1119>v" ":945v"
"WLSEL<1118>v" ":946v"
"WLSEL<1117>v" ":947v"
"WLSEL<1116>v" ":948v"
"WLSEL<1115>v" ":949v"
"WLSEL<1114>v" ":950v"
"WLSEL<1113>v" ":951v"
"WLSEL<1112>v" ":952v"
"WLSEL<1111>v" ":953v"
"WLSEL<1110>v" ":954v"
"WLSEL<1109>v" ":955v"
"WLSEL<1108>v" ":956v"
"WLSEL<1107>v" ":957v"
"WLSEL<1106>v" ":958v"
"WLSEL<1105>v" ":959v"
"WLSEL<1104>v" ":960v"
"WLSEL<1103>v" ":961v"
"WLSEL<1102>v" ":962v"
"WLSEL<1101>v" ":963v"
"WLSEL<1100>v" ":964v"
"WLSEL<1099>v" ":965v"
"WLSEL<1098>v" ":966v"
"WLSEL<1097>v" ":967v"
"WLSEL<1096>v" ":968v"
"WLSEL<1095>v" ":969v"
"WLSEL<1094>v" ":970v"
"WLSEL<1093>v" ":971v"
"WLSEL<1092>v" ":972v"
"WLSEL<1091>v" ":973v"
"WLSEL<1090>v" ":974v"
"WLSEL<1089>v" ":975v"
"WLSEL<1088>v" ":976v"
"WLSEL<1087>v" ":977v"
"WLSEL<1086>v" ":978v"
"WLSEL<1085>v" ":979v"
"WLSEL<1084>v" ":980v"
"WLSEL<1083>v" ":981v"
"WLSEL<1082>v" ":982v"
"WLSEL<1081>v" ":983v"
"WLSEL<1080>v" ":984v"
"WLSEL<1079>v" ":985v"
"WLSEL<1078>v" ":986v"
"WLSEL<1077>v" ":987v"
"WLSEL<1076>v" ":988v"
"WLSEL<1075>v" ":989v"
"WLSEL<1074>v" ":990v"
"WLSEL<1073>v" ":991v"
"WLSEL<1072>v" ":992v"
"WLSEL<1071>v" ":993v"
"WLSEL<1070>v" ":994v"
"WLSEL<1069>v" ":995v"
"WLSEL<1068>v" ":996v"
"WLSEL<1067>v" ":997v"
"WLSEL<1066>v" ":998v"
"WLSEL<1065>v" ":999v"
"WLSEL<1064>v" ":1000v"
"WLSEL<1063>v" ":1001v"
"WLSEL<1062>v" ":1002v"
"WLSEL<1061>v" ":1003v"
"WLSEL<1060>v" ":1004v"
"WLSEL<1059>v" ":1005v"
"WLSEL<1058>v" ":1006v"
"WLSEL<1057>v" ":1007v"
"WLSEL<1056>v" ":1008v"
"WLSEL<1055>v" ":1009v"
"WLSEL<1054>v" ":1010v"
"WLSEL<1053>v" ":1011v"
"WLSEL<1052>v" ":1012v"
"WLSEL<1051>v" ":1013v"
"WLSEL<1050>v" ":1014v"
"WLSEL<1049>v" ":1015v"
"WLSEL<1048>v" ":1016v"
"WLSEL<1047>v" ":1017v"
"WLSEL<1046>v" ":1018v"
"WLSEL<1045>v" ":1019v"
"WLSEL<1044>v" ":1020v"
"WLSEL<1043>v" ":1021v"
"WLSEL<1042>v" ":1022v"
"WLSEL<1041>v" ":1023v"
"WLSEL<1040>v" ":1024v"
"WLSEL<1039>v" ":1025v"
"WLSEL<1038>v" ":1026v"
"WLSEL<1037>v" ":1027v"
"WLSEL<1036>v" ":1028v"
"WLSEL<1035>v" ":1029v"
"WLSEL<1034>v" ":1030v"
"WLSEL<1033>v" ":1031v"
"WLSEL<1032>v" ":1032v"
"WLSEL<1031>v" ":1033v"
"WLSEL<1030>v" ":1034v"
"WLSEL<1029>v" ":1035v"
"WLSEL<1028>v" ":1036v"
"WLSEL<1027>v" ":1037v"
"WLSEL<1026>v" ":1038v"
"WLSEL<1025>v" ":1039v"
"WLSEL<1024>v" ":1040v"
"WLSEL<1023>v" ":1041v"
"WLSEL<1022>v" ":1042v"
"WLSEL<1021>v" ":1043v"
"WLSEL<1020>v" ":1044v"
"WLSEL<1019>v" ":1045v"
"WLSEL<1018>v" ":1046v"
"WLSEL<1017>v" ":1047v"
"WLSEL<1016>v" ":1048v"
"WLSEL<1015>v" ":1049v"
"WLSEL<1014>v" ":1050v"
"WLSEL<1013>v" ":1051v"
"WLSEL<1012>v" ":1052v"
"WLSEL<1011>v" ":1053v"
"WLSEL<1010>v" ":1054v"
"WLSEL<1009>v" ":1055v"
"WLSEL<1008>v" ":1056v"
"WLSEL<1007>v" ":1057v"
"WLSEL<1006>v" ":1058v"
"WLSEL<1005>v" ":1059v"
"WLSEL<1004>v" ":1060v"
"WLSEL<1003>v" ":1061v"
"WLSEL<1002>v" ":1062v"
"WLSEL<1001>v" ":1063v"
"WLSEL<1000>v" ":1064v"
"WLSEL<999>v" ":1065v"
"WLSEL<998>v" ":1066v"
"WLSEL<997>v" ":1067v"
"WLSEL<996>v" ":1068v"
"WLSEL<995>v" ":1069v"
"WLSEL<994>v" ":1070v"
"WLSEL<993>v" ":1071v"
"WLSEL<992>v" ":1072v"
"WLSEL<991>v" ":1073v"
"WLSEL<990>v" ":1074v"
"WLSEL<989>v" ":1075v"
"WLSEL<988>v" ":1076v"
"WLSEL<987>v" ":1077v"
"WLSEL<986>v" ":1078v"
"WLSEL<985>v" ":1079v"
"WLSEL<984>v" ":1080v"
"WLSEL<983>v" ":1081v"
"WLSEL<982>v" ":1082v"
"WLSEL<981>v" ":1083v"
"WLSEL<980>v" ":1084v"
"WLSEL<979>v" ":1085v"
"WLSEL<978>v" ":1086v"
"WLSEL<977>v" ":1087v"
"WLSEL<976>v" ":1088v"
"WLSEL<975>v" ":1089v"
"WLSEL<974>v" ":1090v"
"WLSEL<973>v" ":1091v"
"WLSEL<972>v" ":1092v"
"WLSEL<971>v" ":1093v"
"WLSEL<970>v" ":1094v"
"WLSEL<969>v" ":1095v"
"WLSEL<968>v" ":1096v"
"WLSEL<967>v" ":1097v"
"WLSEL<966>v" ":1098v"
"WLSEL<965>v" ":1099v"
"WLSEL<964>v" ":1100v"
"WLSEL<963>v" ":1101v"
"WLSEL<962>v" ":1102v"
"WLSEL<961>v" ":1103v"
"WLSEL<960>v" ":1104v"
"WLSEL<959>v" ":1105v"
"WLSEL<958>v" ":1106v"
"WLSEL<957>v" ":1107v"
"WLSEL<956>v" ":1108v"
"WLSEL<955>v" ":1109v"
"WLSEL<954>v" ":1110v"
"WLSEL<953>v" ":1111v"
"WLSEL<952>v" ":1112v"
"WLSEL<951>v" ":1113v"
"WLSEL<950>v" ":1114v"
"WLSEL<949>v" ":1115v"
"WLSEL<948>v" ":1116v"
"WLSEL<947>v" ":1117v"
"WLSEL<946>v" ":1118v"
"WLSEL<945>v" ":1119v"
"WLSEL<944>v" ":1120v"
"WLSEL<943>v" ":1121v"
"WLSEL<942>v" ":1122v"
"WLSEL<941>v" ":1123v"
"WLSEL<940>v" ":1124v"
"WLSEL<939>v" ":1125v"
"WLSEL<938>v" ":1126v"
"WLSEL<937>v" ":1127v"
"WLSEL<936>v" ":1128v"
"WLSEL<935>v" ":1129v"
"WLSEL<934>v" ":1130v"
"WLSEL<933>v" ":1131v"
"WLSEL<932>v" ":1132v"
"WLSEL<931>v" ":1133v"
"WLSEL<930>v" ":1134v"
"WLSEL<929>v" ":1135v"
"WLSEL<928>v" ":1136v"
"WLSEL<927>v" ":1137v"
"WLSEL<926>v" ":1138v"
"WLSEL<925>v" ":1139v"
"WLSEL<924>v" ":1140v"
"WLSEL<923>v" ":1141v"
"WLSEL<922>v" ":1142v"
"WLSEL<921>v" ":1143v"
"WLSEL<920>v" ":1144v"
"WLSEL<919>v" ":1145v"
"WLSEL<918>v" ":1146v"
"WLSEL<917>v" ":1147v"
"WLSEL<916>v" ":1148v"
"WLSEL<915>v" ":1149v"
"WLSEL<914>v" ":1150v"
"WLSEL<913>v" ":1151v"
"WLSEL<912>v" ":1152v"
"WLSEL<911>v" ":1153v"
"WLSEL<910>v" ":1154v"
"WLSEL<909>v" ":1155v"
"WLSEL<908>v" ":1156v"
"WLSEL<907>v" ":1157v"
"WLSEL<906>v" ":1158v"
"WLSEL<905>v" ":1159v"
"WLSEL<904>v" ":1160v"
"WLSEL<903>v" ":1161v"
"WLSEL<902>v" ":1162v"
"WLSEL<901>v" ":1163v"
"WLSEL<900>v" ":1164v"
"WLSEL<899>v" ":1165v"
"WLSEL<898>v" ":1166v"
"WLSEL<897>v" ":1167v"
"WLSEL<896>v" ":1168v"
"WLSEL<895>v" ":1169v"
"WLSEL<894>v" ":1170v"
"WLSEL<893>v" ":1171v"
"WLSEL<892>v" ":1172v"
"WLSEL<891>v" ":1173v"
"WLSEL<890>v" ":1174v"
"WLSEL<889>v" ":1175v"
"WLSEL<888>v" ":1176v"
"WLSEL<887>v" ":1177v"
"WLSEL<886>v" ":1178v"
"WLSEL<885>v" ":1179v"
"WLSEL<884>v" ":1180v"
"WLSEL<883>v" ":1181v"
"WLSEL<882>v" ":1182v"
"WLSEL<881>v" ":1183v"
"WLSEL<880>v" ":1184v"
"WLSEL<879>v" ":1185v"
"WLSEL<878>v" ":1186v"
"WLSEL<877>v" ":1187v"
"WLSEL<876>v" ":1188v"
"WLSEL<875>v" ":1189v"
"WLSEL<874>v" ":1190v"
"WLSEL<873>v" ":1191v"
"WLSEL<872>v" ":1192v"
"WLSEL<871>v" ":1193v"
"WLSEL<870>v" ":1194v"
"WLSEL<869>v" ":1195v"
"WLSEL<868>v" ":1196v"
"WLSEL<867>v" ":1197v"
"WLSEL<866>v" ":1198v"
"WLSEL<865>v" ":1199v"
"WLSEL<864>v" ":1200v"
"WLSEL<863>v" ":1201v"
"WLSEL<862>v" ":1202v"
"WLSEL<861>v" ":1203v"
"WLSEL<860>v" ":1204v"
"WLSEL<859>v" ":1205v"
"WLSEL<858>v" ":1206v"
"WLSEL<857>v" ":1207v"
"WLSEL<856>v" ":1208v"
"WLSEL<855>v" ":1209v"
"WLSEL<854>v" ":1210v"
"WLSEL<853>v" ":1211v"
"WLSEL<852>v" ":1212v"
"WLSEL<851>v" ":1213v"
"WLSEL<850>v" ":1214v"
"WLSEL<849>v" ":1215v"
"WLSEL<848>v" ":1216v"
"WLSEL<847>v" ":1217v"
"WLSEL<846>v" ":1218v"
"WLSEL<845>v" ":1219v"
"WLSEL<844>v" ":1220v"
"WLSEL<843>v" ":1221v"
"WLSEL<842>v" ":1222v"
"WLSEL<841>v" ":1223v"
"WLSEL<840>v" ":1224v"
"WLSEL<839>v" ":1225v"
"WLSEL<838>v" ":1226v"
"WLSEL<837>v" ":1227v"
"WLSEL<836>v" ":1228v"
"WLSEL<835>v" ":1229v"
"WLSEL<834>v" ":1230v"
"WLSEL<833>v" ":1231v"
"WLSEL<832>v" ":1232v"
"WLSEL<831>v" ":1233v"
"WLSEL<830>v" ":1234v"
"WLSEL<829>v" ":1235v"
"WLSEL<828>v" ":1236v"
"WLSEL<827>v" ":1237v"
"WLSEL<826>v" ":1238v"
"WLSEL<825>v" ":1239v"
"WLSEL<824>v" ":1240v"
"WLSEL<823>v" ":1241v"
"WLSEL<822>v" ":1242v"
"WLSEL<821>v" ":1243v"
"WLSEL<820>v" ":1244v"
"WLSEL<819>v" ":1245v"
"WLSEL<818>v" ":1246v"
"WLSEL<817>v" ":1247v"
"WLSEL<816>v" ":1248v"
"WLSEL<815>v" ":1249v"
"WLSEL<814>v" ":1250v"
"WLSEL<813>v" ":1251v"
"WLSEL<812>v" ":1252v"
"WLSEL<811>v" ":1253v"
"WLSEL<810>v" ":1254v"
"WLSEL<809>v" ":1255v"
"WLSEL<808>v" ":1256v"
"WLSEL<807>v" ":1257v"
"WLSEL<806>v" ":1258v"
"WLSEL<805>v" ":1259v"
"WLSEL<804>v" ":1260v"
"WLSEL<803>v" ":1261v"
"WLSEL<802>v" ":1262v"
"WLSEL<801>v" ":1263v"
"WLSEL<800>v" ":1264v"
"WLSEL<799>v" ":1265v"
"WLSEL<798>v" ":1266v"
"WLSEL<797>v" ":1267v"
"WLSEL<796>v" ":1268v"
"WLSEL<795>v" ":1269v"
"WLSEL<794>v" ":1270v"
"WLSEL<793>v" ":1271v"
"WLSEL<792>v" ":1272v"
"WLSEL<791>v" ":1273v"
"WLSEL<790>v" ":1274v"
"WLSEL<789>v" ":1275v"
"WLSEL<788>v" ":1276v"
"WLSEL<787>v" ":1277v"
"WLSEL<786>v" ":1278v"
"WLSEL<785>v" ":1279v"
"WLSEL<784>v" ":1280v"
"WLSEL<783>v" ":1281v"
"WLSEL<782>v" ":1282v"
"WLSEL<781>v" ":1283v"
"WLSEL<780>v" ":1284v"
"WLSEL<779>v" ":1285v"
"WLSEL<778>v" ":1286v"
"WLSEL<777>v" ":1287v"
"WLSEL<776>v" ":1288v"