HEADER
"PSFversion" "1.00"
"simulator" "spectre"
"version" "18.1.0.556.isr13"
"date" "5:32:43 PM, Thur Dec 16, 2021"
"design" "// Generated for: spectre"
"analysis type" "info.subckts"
"analysis name" "subckts"
"analysis description" "Circuit Information"
"xVecSorted" "unknown"
"tolerance.relative" 0.00100000
TYPE
"subckt" STRUCT(
"subckt_params" STRING *
"subckt_terminals" STRING *
"subckt_instances" STRING *
) PROP(
"key" "sub"
)
VALUE
"varmis_12_llrf" "subckt" (
""
""
""
)
"rnnpo_nw_llrf" "subckt" (
""
""
""
)
"BitCellLoad_L" "subckt" (
""
"WL vdd! 0"
"I18.I15.IRow<0>.I0<31>_turbo_m32 I18.I15.IRow<1>.I0<31>_turbo_m32 I18.I15.IRow<2>.I0<31>_turbo_m32 I18.I15.IRow<3>.I0<31>_turbo_m32 I18.I15.IRow<4>.I0<31>_turbo_m32 I18.I15.IRow<5>.I0<31>_turbo_m32 I18.I15.IRow<6>.I0<31>_turbo_m32 I18.I15.IRow<7>.I0<31>_turbo_m32 I18.I15.IRow<8>.I0<31>_turbo_m32 I18.I15.IRow<9>.I0<31>_turbo_m32 I18.I15.IRow<10>.I0<31>_turbo_m32 I18.I15.IRow<11>.I0<31>_turbo_m32 I18.I15.IRow<12>.I0<31>_turbo_m32 I18.I15.IRow<13>.I0<31>_turbo_m32 I18.I15.IRow<14>.I0<31>_turbo_m32 I18.I15.IRow<15>.I0<31>_turbo_m32 I18.I15.IRow<16>.I0<31>_turbo_m32 I18.I15.IRow<17>.I0<31>_turbo_m32 I18.I15.IRow<18>.I0<31>_turbo_m32 I18.I15.IRow<19>.I0<31>_turbo_m32 I18.I15.IRow<20>.I0<31>_turbo_m32 I18.I15.IRow<21>.I0<31>_turbo_m32 I18.I15.IRow<22>.I0<31>_turbo_m32 I18.I15.IRow<23>.I0<31>_turbo_m32 I18.I15.IRow<24>.I0<31>_turbo_m32 I18.I15.IRow<25>.I0<31>_turbo_m32 I18.I15.IRow<26>.I0<31>_turbo_m32 I18.I15.IRow<27>.I0<31>_turbo_m32 I18.I15.IRow<28>.I0<31>_turbo_m32 I18.I15.IRow<29>.I0<31>_turbo_m32 I18.I15.IRow<30>.I0<31>_turbo_m32 I18.I15.IRow<31>.I0<31>_turbo_m32 I18.I15.IRow<32>.I0<31>_turbo_m32 I18.I15.IRow<33>.I0<31>_turbo_m32 I18.I15.IRow<34>.I0<31>_turbo_m32 I18.I15.IRow<35>.I0<31>_turbo_m32 I18.I15.IRow<36>.I0<31>_turbo_m32 I18.I15.IRow<37>.I0<31>_turbo_m32 I18.I15.IRow<38>.I0<31>_turbo_m32 I18.I15.IRow<39>.I0<31>_turbo_m32 I18.I15.IRow<40>.I0<31>_turbo_m32 I18.I15.IRow<41>.I0<31>_turbo_m32 I18.I15.IRow<42>.I0<31>_turbo_m32 I18.I15.IRow<43>.I0<31>_turbo_m32 I18.I15.IRow<44>.I0<31>_turbo_m32 I18.I15.IRow<45>.I0<31>_turbo_m32 I18.I15.IRow<46>.I0<31>_turbo_m32 I18.I15.IRow<47>.I0<31>_turbo_m32 I18.I15.IRow<48>.I0<31>_turbo_m32 I18.I15.IRow<49>.I0<31>_turbo_m32 I18.I15.IRow<50>.I0<31>_turbo_m32 I18.I15.IRow<51>.I0<31>_turbo_m32 I18.I15.IRow<52>.I0<31>_turbo_m32 I18.I15.IRow<53>.I0<31>_turbo_m32 I18.I15.IRow<54>.I0<31>_turbo_m32 I18.I15.IRow<55>.I0<31>_turbo_m32 I18.I15.IRow<56>.I0<31>_turbo_m32 I18.I15.IRow<57>.I0<31>_turbo_m32 I18.I15.IRow<58>.I0<31>_turbo_m32 I18.I15.IRow<59>.I0<31>_turbo_m32 I18.I15.IRow<60>.I0<31>_turbo_m32 I18.I15.IRow<61>.I0<31>_turbo_m32 I18.I15.IRow<62>.I0<31>_turbo_m32 I18.I15.IRow<63>.I0<31>_turbo_m32 I18.I15.IRow<64>.I0<31>_turbo_m32 I18.I15.IRow<65>.I0<31>_turbo_m32 I18.I15.IRow<66>.I0<31>_turbo_m32 I18.I15.IRow<67>.I0<31>_turbo_m32 I18.I15.IRow<68>.I0<31>_turbo_m32 I18.I15.IRow<69>.I0<31>_turbo_m32 I18.I15.IRow<70>.I0<31>_turbo_m32 I18.I15.IRow<71>.I0<31>_turbo_m32 I18.I15.IRow<72>.I0<31>_turbo_m32 I18.I15.IRow<73>.I0<31>_turbo_m32 I18.I15.IRow<74>.I0<31>_turbo_m32 I18.I15.IRow<75>.I0<31>_turbo_m32 I18.I15.IRow<76>.I0<31>_turbo_m32 I18.I15.IRow<77>.I0<31>_turbo_m32 I18.I15.IRow<78>.I0<31>_turbo_m32 I18.I15.IRow<79>.I0<31>_turbo_m32 I18.I15.IRow<80>.I0<31>_turbo_m32 I18.I15.IRow<81>.I0<31>_turbo_m32 I18.I15.IRow<82>.I0<31>_turbo_m32 I18.I15.IRow<83>.I0<31>_turbo_m32 I18.I15.IRow<84>.I0<31>_turbo_m32 I18.I15.IRow<85>.I0<31>_turbo_m32 I18.I15.IRow<86>.I0<31>_turbo_m32 I18.I15.IRow<87>.I0<31>_turbo_m32 I18.I15.IRow<88>.I0<31>_turbo_m32 I18.I15.IRow<89>.I0<31>_turbo_m32 I18.I15.IRow<90>.I0<31>_turbo_m32 I18.I15.IRow<91>.I0<31>_turbo_m32 I18.I15.IRow<92>.I0<31>_turbo_m32 I18.I15.IRow<93>.I0<31>_turbo_m32 I18.I15.IRow<94>.I0<31>_turbo_m32 I18.I15.IRow<95>.I0<31>_turbo_m32 I18.I15.IRow<96>.I0<31>_turbo_m32 I18.I15.IRow<97>.I0<31>_turbo_m32 I18.I15.IRow<98>.I0<31>_turbo_m32 I18.I15.IRow<99>.I0<31>_turbo_m32 I18.I15.IRow<100>.I0<31>_turbo_m32 I18.I15.IRow<101>.I0<31>_turbo_m32 I18.I15.IRow<102>.I0<31>_turbo_m32 I18.I15.IRow<103>.I0<31>_turbo_m32 I18.I15.IRow<104>.I0<31>_turbo_m32 I18.I15.IRow<105>.I0<31>_turbo_m32 I18.I15.IRow<106>.I0<31>_turbo_m32 I18.I15.IRow<107>.I0<31>_turbo_m32 I18.I15.IRow<108>.I0<31>_turbo_m32 I18.I15.IRow<109>.I0<31>_turbo_m32 I18.I15.IRow<110>.I0<31>_turbo_m32 I18.I15.IRow<111>.I0<31>_turbo_m32 I18.I15.IRow<112>.I0<31>_turbo_m32 I18.I15.IRow<113>.I0<31>_turbo_m32 I18.I15.IRow<114>.I0<31>_turbo_m32 I18.I15.IRow<115>.I0<31>_turbo_m32 I18.I15.IRow<116>.I0<31>_turbo_m32 I18.I15.IRow<117>.I0<31>_turbo_m32 I18.I15.IRow<118>.I0<31>_turbo_m32 I18.I15.IRow<119>.I0<31>_turbo_m32 I18.I15.IRow<120>.I0<31>_turbo_m32 I18.I15.IRow<121>.I0<31>_turbo_m32 I18.I15.IRow<122>.I0<31>_turbo_m32 I18.I15.IRow<123>.I0<31>_turbo_m32 I18.I15.IRow<124>.I0<31>_turbo_m32 I18.I15.IRow<125>.I0<31>_turbo_m32 I18.I15.IRow<126>.I0<31>_turbo_m32 I18.I15.IRow<127>.I0<31>_turbo_m32 I18.I15.IRow<128>.I0<31>_turbo_m32 I18.I15.IRow<129>.I0<31>_turbo_m32 I18.I15.IRow<130>.I0<31>_turbo_m32 I18.I15.IRow<131>.I0<31>_turbo_m32 I18.I15.IRow<132>.I0<31>_turbo_m32 I18.I15.IRow<133>.I0<31>_turbo_m32 I18.I15.IRow<134>.I0<31>_turbo_m32 I18.I15.IRow<135>.I0<31>_turbo_m32 I18.I15.IRow<136>.I0<31>_turbo_m32 I18.I15.IRow<137>.I0<31>_turbo_m32 I18.I15.IRow<138>.I0<31>_turbo_m32 I18.I15.IRow<139>.I0<31>_turbo_m32 I18.I15.IRow<140>.I0<31>_turbo_m32 I18.I15.IRow<141>.I0<31>_turbo_m32 I18.I15.IRow<142>.I0<31>_turbo_m32 I18.I15.IRow<143>.I0<31>_turbo_m32 I18.I15.IRow<144>.I0<31>_turbo_m32 I18.I15.IRow<145>.I0<31>_turbo_m32 I18.I15.IRow<146>.I0<31>_turbo_m32 I18.I15.IRow<147>.I0<31>_turbo_m32 I18.I15.IRow<148>.I0<31>_turbo_m32 I18.I15.IRow<149>.I0<31>_turbo_m32 I18.I15.IRow<150>.I0<31>_turbo_m32 I18.I15.IRow<151>.I0<31>_turbo_m32 I18.I15.IRow<152>.I0<31>_turbo_m32 I18.I15.IRow<153>.I0<31>_turbo_m32 I18.I15.IRow<154>.I0<31>_turbo_m32 I18.I15.IRow<155>.I0<31>_turbo_m32 I18.I15.IRow<156>.I0<31>_turbo_m32 I18.I15.IRow<157>.I0<31>_turbo_m32 I18.I15.IRow<158>.I0<31>_turbo_m32 I18.I15.IRow<159>.I0<31>_turbo_m32 I18.I15.IRow<160>.I0<31>_turbo_m32 I18.I15.IRow<161>.I0<31>_turbo_m32 I18.I15.IRow<162>.I0<31>_turbo_m32 I18.I15.IRow<163>.I0<31>_turbo_m32 I18.I15.IRow<164>.I0<31>_turbo_m32 I18.I15.IRow<165>.I0<31>_turbo_m32 I18.I15.IRow<166>.I0<31>_turbo_m32 I18.I15.IRow<167>.I0<31>_turbo_m32 I18.I15.IRow<168>.I0<31>_turbo_m32 I18.I15.IRow<169>.I0<31>_turbo_m32 I18.I15.IRow<170>.I0<31>_turbo_m32 I18.I15.IRow<171>.I0<31>_turbo_m32 I18.I15.IRow<172>.I0<31>_turbo_m32 I18.I15.IRow<173>.I0<31>_turbo_m32 I18.I15.IRow<174>.I0<31>_turbo_m32 I18.I15.IRow<175>.I0<31>_turbo_m32 I18.I15.IRow<176>.I0<31>_turbo_m32 I18.I15.IRow<177>.I0<31>_turbo_m32 I18.I15.IRow<178>.I0<31>_turbo_m32 I18.I15.IRow<179>.I0<31>_turbo_m32 I18.I15.IRow<180>.I0<31>_turbo_m32 I18.I15.IRow<181>.I0<31>_turbo_m32 I18.I15.IRow<182>.I0<31>_turbo_m32 I18.I15.IRow<183>.I0<31>_turbo_m32 I18.I15.IRow<184>.I0<31>_turbo_m32 I18.I15.IRow<185>.I0<31>_turbo_m32 I18.I15.IRow<186>.I0<31>_turbo_m32 I18.I15.IRow<187>.I0<31>_turbo_m32 I18.I15.IRow<188>.I0<31>_turbo_m32 I18.I15.IRow<189>.I0<31>_turbo_m32 I18.I15.IRow<190>.I0<31>_turbo_m32 I18.I15.IRow<191>.I0<31>_turbo_m32 I18.I15.IRow<192>.I0<31>_turbo_m32 I18.I15.IRow<193>.I0<31>_turbo_m32 I18.I15.IRow<194>.I0<31>_turbo_m32 I18.I15.IRow<195>.I0<31>_turbo_m32 I18.I15.IRow<196>.I0<31>_turbo_m32 I18.I15.IRow<197>.I0<31>_turbo_m32 I18.I15.IRow<198>.I0<31>_turbo_m32 I18.I15.IRow<199>.I0<31>_turbo_m32 I18.I15.IRow<200>.I0<31>_turbo_m32 I18.I15.IRow<201>.I0<31>_turbo_m32 I18.I15.IRow<202>.I0<31>_turbo_m32 I18.I15.IRow<203>.I0<31>_turbo_m32 I18.I15.IRow<204>.I0<31>_turbo_m32 I18.I15.IRow<205>.I0<31>_turbo_m32 I18.I15.IRow<206>.I0<31>_turbo_m32 I18.I15.IRow<207>.I0<31>_turbo_m32 I18.I15.IRow<208>.I0<31>_turbo_m32 I18.I15.IRow<209>.I0<31>_turbo_m32 I18.I15.IRow<210>.I0<31>_turbo_m32 I18.I15.IRow<211>.I0<31>_turbo_m32 I18.I15.IRow<212>.I0<31>_turbo_m32 I18.I15.IRow<213>.I0<31>_turbo_m32 I18.I15.IRow<214>.I0<31>_turbo_m32 I18.I15.IRow<215>.I0<31>_turbo_m32 I18.I15.IRow<216>.I0<31>_turbo_m32 I18.I15.IRow<217>.I0<31>_turbo_m32 I18.I15.IRow<218>.I0<31>_turbo_m32 I18.I15.IRow<219>.I0<31>_turbo_m32 I18.I15.IRow<220>.I0<31>_turbo_m32 I18.I15.IRow<221>.I0<31>_turbo_m32 I18.I15.IRow<222>.I0<31>_turbo_m32 I18.I15.IRow<223>.I0<31>_turbo_m32 I18.I15.IRow<224>.I0<31>_turbo_m32 I18.I15.IRow<225>.I0<31>_turbo_m32 I18.I15.IRow<226>.I0<31>_turbo_m32 I18.I15.IRow<227>.I0<31>_turbo_m32 I18.I15.IRow<228>.I0<31>_turbo_m32 I18.I15.IRow<229>.I0<31>_turbo_m32 I18.I15.IRow<230>.I0<31>_turbo_m32 I18.I15.IRow<231>.I0<31>_turbo_m32 I18.I15.IRow<232>.I0<31>_turbo_m32 I18.I15.IRow<233>.I0<31>_turbo_m32 I18.I15.IRow<234>.I0<31>_turbo_m32 I18.I15.IRow<235>.I0<31>_turbo_m32 I18.I15.IRow<236>.I0<31>_turbo_m32 I18.I15.IRow<237>.I0<31>_turbo_m32 I18.I15.IRow<238>.I0<31>_turbo_m32 I18.I15.IRow<239>.I0<31>_turbo_m32 I18.I15.IRow<240>.I0<31>_turbo_m32 I18.I15.IRow<241>.I0<31>_turbo_m32 I18.I15.IRow<242>.I0<31>_turbo_m32 I18.I15.IRow<243>.I0<31>_turbo_m32 I18.I15.IRow<244>.I0<31>_turbo_m32 I18.I15.IRow<245>.I0<31>_turbo_m32 I18.I15.IRow<246>.I0<31>_turbo_m32 I18.I15.IRow<247>.I0<31>_turbo_m32 I18.I15.IRow<248>.I0<31>_turbo_m32 I18.I15.IRow<249>.I0<31>_turbo_m32 I18.I15.IRow<250>.I0<31>_turbo_m32 I18.I15.IRow<251>.I0<31>_turbo_m32 I18.I15.IRow<252>.I0<31>_turbo_m32 I18.I15.IRow<253>.I0<31>_turbo_m32 I18.I15.IRow<254>.I0<31>_turbo_m32 I18.I15.IRow<255>.I0<31>_turbo_m32"
)
"n_bpw_12_llrvtrf" "subckt" (
""
""
""
)
"varmis_18_llrf" "subckt" (
""
""
""
)
"momcaps_sy_mmkf" "subckt" (
""
""
""
)
"Post" "subckt" (
""
"A<7> A<6> A<5> A<4> A<3> A<2> A<1> A<0> WL 0 vdd!"
"I18.IPost<255> I18.IPost<254> I18.IPost<253> I18.IPost<252> I18.IPost<251> I18.IPost<250> I18.IPost<249> I18.IPost<248> I18.IPost<247> I18.IPost<246> I18.IPost<245> I18.IPost<244> I18.IPost<243> I18.IPost<242> I18.IPost<241> I18.IPost<240> I18.IPost<239> I18.IPost<238> I18.IPost<237> I18.IPost<236> I18.IPost<235> I18.IPost<234> I18.IPost<233> I18.IPost<232> I18.IPost<231> I18.IPost<230> I18.IPost<229> I18.IPost<228> I18.IPost<227> I18.IPost<226> I18.IPost<225> I18.IPost<224> I18.IPost<223> I18.IPost<222> I18.IPost<221> I18.IPost<220> I18.IPost<219> I18.IPost<218> I18.IPost<217> I18.IPost<216> I18.IPost<215> I18.IPost<214> I18.IPost<213> I18.IPost<212> I18.IPost<211> I18.IPost<210> I18.IPost<209> I18.IPost<208> I18.IPost<207> I18.IPost<206> I18.IPost<205> I18.IPost<204> I18.IPost<203> I18.IPost<202> I18.IPost<201> I18.IPost<200> I18.IPost<199> I18.IPost<198> I18.IPost<197> I18.IPost<196> I18.IPost<195> I18.IPost<194> I18.IPost<193> I18.IPost<192> I18.IPost<191> I18.IPost<190> I18.IPost<189> I18.IPost<188> I18.IPost<187> I18.IPost<186> I18.IPost<185> I18.IPost<184> I18.IPost<183> I18.IPost<182> I18.IPost<181> I18.IPost<180> I18.IPost<179> I18.IPost<178> I18.IPost<177> I18.IPost<176> I18.IPost<175> I18.IPost<174> I18.IPost<173> I18.IPost<172> I18.IPost<171> I18.IPost<170> I18.IPost<169> I18.IPost<168> I18.IPost<167> I18.IPost<166> I18.IPost<165> I18.IPost<164> I18.IPost<163> I18.IPost<162> I18.IPost<161> I18.IPost<160> I18.IPost<159> I18.IPost<158> I18.IPost<157> I18.IPost<156> I18.IPost<155> I18.IPost<154> I18.IPost<153> I18.IPost<152> I18.IPost<151> I18.IPost<150> I18.IPost<149> I18.IPost<148> I18.IPost<147> I18.IPost<146> I18.IPost<145> I18.IPost<144> I18.IPost<143> I18.IPost<142> I18.IPost<141> I18.IPost<140> I18.IPost<139> I18.IPost<138> I18.IPost<137> I18.IPost<136> I18.IPost<135> I18.IPost<134> I18.IPost<133> I18.IPost<132> I18.IPost<131> I18.IPost<130> I18.IPost<129> I18.IPost<128> I18.IPost<127> I18.IPost<126> I18.IPost<125> I18.IPost<124> I18.IPost<123> I18.IPost<122> I18.IPost<121> I18.IPost<120> I18.IPost<119> I18.IPost<118> I18.IPost<117> I18.IPost<116> I18.IPost<115> I18.IPost<114> I18.IPost<113> I18.IPost<112> I18.IPost<111> I18.IPost<110> I18.IPost<109> I18.IPost<108> I18.IPost<107> I18.IPost<106> I18.IPost<105> I18.IPost<104> I18.IPost<103> I18.IPost<102> I18.IPost<101> I18.IPost<100> I18.IPost<99> I18.IPost<98> I18.IPost<97> I18.IPost<96> I18.IPost<95> I18.IPost<94> I18.IPost<93> I18.IPost<92> I18.IPost<91> I18.IPost<90> I18.IPost<89> I18.IPost<88> I18.IPost<87> I18.IPost<86> I18.IPost<85> I18.IPost<84> I18.IPost<83> I18.IPost<82> I18.IPost<81> I18.IPost<80> I18.IPost<79> I18.IPost<78> I18.IPost<77> I18.IPost<76> I18.IPost<75> I18.IPost<74> I18.IPost<73> I18.IPost<72> I18.IPost<71> I18.IPost<70> I18.IPost<69> I18.IPost<68> I18.IPost<67> I18.IPost<66> I18.IPost<65> I18.IPost<64> I18.IPost<63> I18.IPost<62> I18.IPost<61> I18.IPost<60> I18.IPost<59> I18.IPost<58> I18.IPost<57> I18.IPost<56> I18.IPost<55> I18.IPost<54> I18.IPost<53> I18.IPost<52> I18.IPost<51> I18.IPost<50> I18.IPost<49> I18.IPost<48> I18.IPost<47> I18.IPost<46> I18.IPost<45> I18.IPost<44> I18.IPost<43> I18.IPost<42> I18.IPost<41> I18.IPost<40> I18.IPost<39> I18.IPost<38> I18.IPost<37> I18.IPost<36> I18.IPost<35> I18.IPost<34> I18.IPost<33> I18.IPost<32> I18.IPost<31> I18.IPost<30> I18.IPost<29> I18.IPost<28> I18.IPost<27> I18.IPost<26> I18.IPost<25> I18.IPost<24> I18.IPost<23> I18.IPost<22> I18.IPost<21> I18.IPost<20> I18.IPost<19> I18.IPost<18> I18.IPost<17> I18.IPost<16> I18.IPost<15> I18.IPost<14> I18.IPost<13> I18.IPost<12> I18.IPost<11> I18.IPost<10> I18.IPost<9> I18.IPost<8> I18.IPost<7> I18.IPost<6> I18.IPost<5> I18.IPost<4> I18.IPost<3> I18.IPost<2> I18.IPost<1> I18.IPost<0>"
)
"Post_L3_8t8" "subckt" (
""
"Sel0<1> Sel0<0> Sel1<1> Sel1<0> Sel2<1> Sel2<0> Sel3 Sel4 Sel5 Sel6 Sel7 WL<63> WL<62> WL<61> WL<60> WL<59> WL<58> WL<57> WL<56> WL<55> WL<54> WL<53> WL<52> WL<51> WL<50> WL<49> WL<48> WL<47> WL<46> WL<45> WL<44> WL<43> WL<42> WL<41> WL<40> WL<39> WL<38> WL<37> WL<36> WL<35> WL<34> WL<33> WL<32> WL<31> WL<30> WL<29> WL<28> WL<27> WL<26> WL<25> WL<24> WL<23> WL<22> WL<21> WL<20> WL<19> WL<18> WL<17> WL<16> WL<15> WL<14> WL<13> WL<12> WL<11> WL<10> WL<9> WL<8> WL<7> WL<6> WL<5> WL<4> WL<3> WL<2> WL<1> WL<0>"
"I18.I7.I2<1>.I2<1>.I2<1>.I2<1>.I2<1> I18.I7.I2<1>.I2<1>.I2<1>.I2<1>.I2<0> I18.I7.I2<1>.I2<1>.I2<1>.I2<0>.I2<1> I18.I7.I2<1>.I2<1>.I2<1>.I2<0>.I2<0> I18.I7.I2<1>.I2<1>.I2<0>.I2<1>.I2<1> I18.I7.I2<1>.I2<1>.I2<0>.I2<1>.I2<0> I18.I7.I2<1>.I2<1>.I2<0>.I2<0>.I2<1> I18.I7.I2<1>.I2<1>.I2<0>.I2<0>.I2<0> I18.I7.I2<1>.I2<0>.I2<1>.I2<1>.I2<1> I18.I7.I2<1>.I2<0>.I2<1>.I2<1>.I2<0> I18.I7.I2<1>.I2<0>.I2<1>.I2<0>.I2<1> I18.I7.I2<1>.I2<0>.I2<1>.I2<0>.I2<0> I18.I7.I2<1>.I2<0>.I2<0>.I2<1>.I2<1> I18.I7.I2<1>.I2<0>.I2<0>.I2<1>.I2<0> I18.I7.I2<1>.I2<0>.I2<0>.I2<0>.I2<1> I18.I7.I2<1>.I2<0>.I2<0>.I2<0>.I2<0> I18.I7.I2<0>.I2<1>.I2<1>.I2<1>.I2<1> I18.I7.I2<0>.I2<1>.I2<1>.I2<1>.I2<0> I18.I7.I2<0>.I2<1>.I2<1>.I2<0>.I2<1> I18.I7.I2<0>.I2<1>.I2<1>.I2<0>.I2<0> I18.I7.I2<0>.I2<1>.I2<0>.I2<1>.I2<1> I18.I7.I2<0>.I2<1>.I2<0>.I2<1>.I2<0> I18.I7.I2<0>.I2<1>.I2<0>.I2<0>.I2<1> I18.I7.I2<0>.I2<1>.I2<0>.I2<0>.I2<0> I18.I7.I2<0>.I2<0>.I2<1>.I2<1>.I2<1> I18.I7.I2<0>.I2<0>.I2<1>.I2<1>.I2<0> I18.I7.I2<0>.I2<0>.I2<1>.I2<0>.I2<1> I18.I7.I2<0>.I2<0>.I2<1>.I2<0>.I2<0> I18.I7.I2<0>.I2<0>.I2<0>.I2<1>.I2<1> I18.I7.I2<0>.I2<0>.I2<0>.I2<1>.I2<0> I18.I7.I2<0>.I2<0>.I2<0>.I2<0>.I2<1> I18.I7.I2<0>.I2<0>.I2<0>.I2<0>.I2<0>"
)
"momcaps_as_mmkf" "subckt" (
""
""
""
)
"rsnwell_ll" "subckt" (
""
""
""
)
"momcaps_array_vp4_rfvcl" "subckt" (
""
""
""
)
"Post_L7_128t8" "subckt" (
""
"Sel0<1> Sel0<0> Sel1<1> Sel1<0> Sel2<1> Sel2<0> Sel3<1> Sel3<0> Sel4<1> Sel4<0> Sel5<1> Sel5<0> Sel6<1> Sel6<0> Sel7 WL<1023> WL<1022> WL<1021> WL<1020> WL<1019> WL<1018> WL<1017> WL<1016> WL<1015> WL<1014> WL<1013> WL<1012> WL<1011> WL<1010> WL<1009> WL<1008> WL<1007> WL<1006> WL<1005> WL<1004> WL<1003> WL<1002> WL<1001> WL<1000> WL<999> WL<998> WL<997> WL<996> WL<995> WL<994> WL<993> WL<992> WL<991> WL<990> WL<989> WL<988> WL<987> WL<986> WL<985> WL<984> WL<983> WL<982> WL<981> WL<980> WL<979> WL<978> WL<977> WL<976> WL<975> WL<974> WL<973> WL<972> WL<971> WL<970> WL<969> WL<968> WL<967> WL<966> WL<965> WL<964> WL<963> WL<962> WL<961> WL<960> WL<959> WL<958> WL<957> WL<956> WL<955> WL<954> WL<953> WL<952> WL<951> WL<950> WL<949> WL<948> WL<947> WL<946> WL<945> WL<944> WL<943> WL<942> WL<941> WL<940> WL<939> WL<938> WL<937> WL<936> WL<935> WL<934> WL<933> WL<932> WL<931> WL<930> WL<929> WL<928> WL<927> WL<926> WL<925> WL<924> WL<923> WL<922> WL<921> WL<920> WL<919> WL<918> WL<917> WL<916> WL<915> WL<914> WL<913> WL<912> WL<911> WL<910> WL<909> WL<908> WL<907> WL<906> WL<905> WL<904> WL<903> WL<902> WL<901> WL<900> WL<899> WL<898> WL<897> WL<896> WL<895> WL<894> WL<893> WL<892> WL<891> WL<890> WL<889> WL<888> WL<887> WL<886> WL<885> WL<884> WL<883> WL<882> WL<881> WL<880> WL<879> WL<878> WL<877> WL<876> WL<875> WL<874> WL<873> WL<872> WL<871> WL<870> WL<869> WL<868> WL<867> WL<866> WL<865> WL<864> WL<863> WL<862> WL<861> WL<860> WL<859> WL<858> WL<857> WL<856> WL<855> WL<854> WL<853> WL<852> WL<851> WL<850> WL<849> WL<848> WL<847> WL<846> WL<845> WL<844> WL<843> WL<842> WL<841> WL<840> WL<839> WL<838> WL<837> WL<836> WL<835> WL<834> WL<833> WL<832> WL<831> WL<830> WL<829> WL<828> WL<827> WL<826> WL<825> WL<824> WL<823> WL<822> WL<821> WL<820> WL<819> WL<818> WL<817> WL<816> WL<815> WL<814> WL<813> WL<812> WL<811> WL<810> WL<809> WL<808> WL<807> WL<806> WL<805> WL<804> WL<803> WL<802> WL<801> WL<800> WL<799> WL<798> WL<797> WL<796> WL<795> WL<794> WL<793> WL<792> WL<791> WL<790> WL<789> WL<788> WL<787> WL<786> WL<785> WL<784> WL<783> WL<782> WL<781> WL<780> WL<779> WL<778> WL<777> WL<776> WL<775> WL<774> WL<773> WL<772> WL<771> WL<770> WL<769> WL<768> WL<767> WL<766> WL<765> WL<764> WL<763> WL<762> WL<761> WL<760> WL<759> WL<758> WL<757> WL<756> WL<755> WL<754> WL<753> WL<752> WL<751> WL<750> WL<749> WL<748> WL<747> WL<746> WL<745> WL<744> WL<743> WL<742> WL<741> WL<740> WL<739> WL<738> WL<737> WL<736> WL<735> WL<734> WL<733> WL<732> WL<731> WL<730> WL<729> WL<728> WL<727> WL<726> WL<725> WL<724> WL<723> WL<722> WL<721> WL<720> WL<719> WL<718> WL<717> WL<716> WL<715> WL<714> WL<713> WL<712> WL<711> WL<710> WL<709> WL<708> WL<707> WL<706> WL<705> WL<704> WL<703> WL<702> WL<701> WL<700> WL<699> WL<698> WL<697> WL<696> WL<695> WL<694> WL<693> WL<692> WL<691> WL<690> WL<689> WL<688> WL<687> WL<686> WL<685> WL<684> WL<683> WL<682> WL<681> WL<680> WL<679> WL<678> WL<677> WL<676> WL<675> WL<674> WL<673> WL<672> WL<671> WL<670> WL<669> WL<668> WL<667> WL<666> WL<665> WL<664> WL<663> WL<662> WL<661> WL<660> WL<659> WL<658> WL<657> WL<656> WL<655> WL<654> WL<653> WL<652> WL<651> WL<650> WL<649> WL<648> WL<647> WL<646> WL<645> WL<644> WL<643> WL<642> WL<641> WL<640> WL<639> WL<638> WL<637> WL<636> WL<635> WL<634> WL<633> WL<632> WL<631> WL<630> WL<629> WL<628> WL<627> WL<626> WL<625> WL<624> WL<623> WL<622> WL<621> WL<620> WL<619> WL<618> WL<617> WL<616> WL<615> WL<614> WL<613> WL<612> WL<611> WL<610> WL<609> WL<608> WL<607> WL<606> WL<605> WL<604> WL<603> WL<602> WL<601> WL<600> WL<599> WL<598> WL<597> WL<596> WL<595> WL<594> WL<593> WL<592> WL<591> WL<590> WL<589> WL<588> WL<587> WL<586> WL<585> WL<584> WL<583> WL<582> WL<581> WL<580> WL<579> WL<578> WL<577> WL<576> WL<575> WL<574> WL<573> WL<572> WL<571> WL<570> WL<569> WL<568> WL<567> WL<566> WL<565> WL<564> WL<563> WL<562> WL<561> WL<560> WL<559> WL<558> WL<557> WL<556> WL<555> WL<554> WL<553> WL<552> WL<551> WL<550> WL<549> WL<548> WL<547> WL<546> WL<545> WL<544> WL<543> WL<542> WL<541> WL<540> WL<539> WL<538> WL<537> WL<536> WL<535> WL<534> WL<533> WL<532> WL<531> WL<530> WL<529> WL<528> WL<527> WL<526> WL<525> WL<524> WL<523> WL<522> WL<521> WL<520> WL<519> WL<518> WL<517> WL<516> WL<515> WL<514> WL<513> WL<512> WL<511> WL<510> WL<509> WL<508> WL<507> WL<506> WL<505> WL<504> WL<503> WL<502> WL<501> WL<500> WL<499> WL<498> WL<497> WL<496> WL<495> WL<494> WL<493> WL<492> WL<491> WL<490> WL<489> WL<488> WL<487> WL<486> WL<485> WL<484> WL<483> WL<482> WL<481> WL<480> WL<479> WL<478> WL<477> WL<476> WL<475> WL<474> WL<473> WL<472> WL<471> WL<470> WL<469> WL<468> WL<467> WL<466> WL<465> WL<464> WL<463> WL<462> WL<461> WL<460> WL<459> WL<458> WL<457> WL<456> WL<455> WL<454> WL<453> WL<452> WL<451> WL<450> WL<449> WL<448> WL<447> WL<446> WL<445> WL<444> WL<443> WL<442> WL<441> WL<440> WL<439> WL<438> WL<437> WL<436> WL<435> WL<434> WL<433> WL<432> WL<431> WL<430> WL<429> WL<428> WL<427> WL<426> WL<425> WL<424> WL<423> WL<422> WL<421> WL<420> WL<419> WL<418> WL<417> WL<416> WL<415> WL<414> WL<413> WL<412> WL<411> WL<410> WL<409> WL<408> WL<407> WL<406> WL<405> WL<404> WL<403> WL<402> WL<401> WL<400> WL<399> WL<398> WL<397> WL<396> WL<395> WL<394> WL<393> WL<392> WL<391> WL<390> WL<389> WL<388> WL<387> WL<386> WL<385> WL<384> WL<383> WL<382> WL<381> WL<380> WL<379> WL<378> WL<377> WL<376> WL<375> WL<374> WL<373> WL<372> WL<371> WL<370> WL<369> WL<368> WL<367> WL<366> WL<365> WL<364> WL<363> WL<362> WL<361> WL<360> WL<359> WL<358> WL<357> WL<356> WL<355> WL<354> WL<353> WL<352> WL<351> WL<350> WL<349> WL<348> WL<347> WL<346> WL<345> WL<344> WL<343> WL<342> WL<341> WL<340> WL<339> WL<338> WL<337> WL<336> WL<335> WL<334> WL<333> WL<332> WL<331> WL<330> WL<329> WL<328> WL<327> WL<326> WL<325> WL<324> WL<323> WL<322> WL<321> WL<320> WL<319> WL<318> WL<317> WL<316> WL<315> WL<314> WL<313> WL<312> WL<311> WL<310> WL<309> WL<308> WL<307> WL<306> WL<305> WL<304> WL<303> WL<302> WL<301> WL<300> WL<299> WL<298> WL<297> WL<296> WL<295> WL<294> WL<293> WL<292> WL<291> WL<290> WL<289> WL<288> WL<287> WL<286> WL<285> WL<284> WL<283> WL<282> WL<281> WL<280> WL<279> WL<278> WL<277> WL<276> WL<275> WL<274> WL<273> WL<272> WL<271> WL<270> WL<269> WL<268> WL<267> WL<266> WL<265> WL<264> WL<263> WL<262> WL<261> WL<260> WL<259> WL<258> WL<257> WL<256> WL<255> WL<254> WL<253> WL<252> WL<251> WL<250> WL<249> WL<248> WL<247> WL<246> WL<245> WL<244> WL<243> WL<242> WL<241> WL<240> WL<239> WL<238> WL<237> WL<236> WL<235> WL<234> WL<233> WL<232> WL<231> WL<230> WL<229> WL<228> WL<227> WL<226> WL<225> WL<224> WL<223> WL<222> WL<221> WL<220> WL<219> WL<218> WL<217> WL<216> WL<215> WL<214> WL<213> WL<212> WL<211> WL<210> WL<209> WL<208> WL<207> WL<206> WL<205> WL<204> WL<203> WL<202> WL<201> WL<200> WL<199> WL<198> WL<197> WL<196> WL<195> WL<194> WL<193> WL<192> WL<191> WL<190> WL<189> WL<188> WL<187> WL<186> WL<185> WL<184> WL<183> WL<182> WL<181> WL<180> WL<179> WL<178> WL<177> WL<176> WL<175> WL<174> WL<173> WL<172> WL<171> WL<170> WL<169> WL<168> WL<167> WL<166> WL<165> WL<164> WL<163> WL<162> WL<161> WL<160> WL<159> WL<158> WL<157> WL<156> WL<155> WL<154> WL<153> WL<152> WL<151> WL<150> WL<149> WL<148> WL<147> WL<146> WL<145> WL<144> WL<143> WL<142> WL<141> WL<140> WL<139> WL<138> WL<137> WL<136> WL<135> WL<134> WL<133> WL<132> WL<131> WL<130> WL<129> WL<128> WL<127> WL<126> WL<125> WL<124> WL<123> WL<122> WL<121> WL<120> WL<119> WL<118> WL<117> WL<116> WL<115> WL<114> WL<113> WL<112> WL<111> WL<110> WL<109> WL<108> WL<107> WL<106> WL<105> WL<104> WL<103> WL<102> WL<101> WL<100> WL<99> WL<98> WL<97> WL<96> WL<95> WL<94> WL<93> WL<92> WL<91> WL<90> WL<89> WL<88> WL<87> WL<86> WL<85> WL<84> WL<83> WL<82> WL<81> WL<80> WL<79> WL<78> WL<77> WL<76> WL<75> WL<74> WL<73> WL<72> WL<71> WL<70> WL<69> WL<68> WL<67> WL<66> WL<65> WL<64> WL<63> WL<62> WL<61> WL<60> WL<59> WL<58> WL<57> WL<56> WL<55> WL<54> WL<53> WL<52> WL<51> WL<50> WL<49> WL<48> WL<47> WL<46> WL<45> WL<44> WL<43> WL<42> WL<41> WL<40> WL<39> WL<38> WL<37> WL<36> WL<35> WL<34> WL<33> WL<32> WL<31> WL<30> WL<29> WL<28> WL<27> WL<26> WL<25> WL<24> WL<23> WL<22> WL<21> WL<20> WL<19> WL<18> WL<17> WL<16> WL<15> WL<14> WL<13> WL<12> WL<11> WL<10> WL<9> WL<8> WL<7> WL<6> WL<5> WL<4> WL<3> WL<2> WL<1> WL<0>"
"I18.I7.I2<1> I18.I7.I2<0>"
)
"momcaps_asmesh_mmkf" "subckt" (
""
""
""
)
"momcaps_symesh_mmkf" "subckt" (
""
""
""
)
"NOR2" "subckt" (
"beta gamma"
"A B Z 0 vdd!"