HEADER
"PSFversion" "1.00"
"Time Stamp" "Dec 16 17:32:39 2021"
TYPE
"variable" STRUCT(
"value" FLOAT DOUBLE
) PROP( "key" "element" )
VALUE
"temp" "variable" ( 27 ) PROP( )
END
