HEADER
"PSFversion" "1.00"
"Time Stamp" "Dec 21 21:35:02 2022"
TYPE
"variable" STRUCT(
"value" FLOAT DOUBLE
) PROP( "key" "element" )
VALUE
"cap_val" "variable" ( 500.01e-18 ) PROP( )
"temp" "variable" ( 27 ) PROP( )
END
