HEADER
"PSFversion" "1.00"
"Time Stamp" "Dec 17 17:03:33 2021"
TYPE
"variable" STRUCT(
"value" FLOAT DOUBLE
) PROP( "key" "element" )
VALUE
"temp" "variable" ( 27 ) PROP( )
END
