HEADER
"PSFversion" "1.00"
"NM0n NM1n" "umc65ll_N_12_LLRVT_spectre"
"WLv" ":1v"
"gndv" ":2v"
"vddv" ":3v"
