HEADER
"PSFversion" "1.00"
"NM1n NM0n" "umc65ll_N_12_LLRVT_spectre"
"PM1n PM0n" "umc65ll_P_12_LLRVT_spectre"
"Av" ":1v"
"Bv" ":2v"
"Zv" ":3v"
