HEADER
"PSFversion" "1.00"
"I2<15>n I2<14>n I2<13>n I2<12>n I2<11>n I2<10>n I2<9>n I2<8>n I2<7>n I2<6>n I2<5>n I2<4>n I2<3>n I2<2>n I2<1>n I2<0>n" "Post_L0_1t2"
"Sel0<15>v" ":1v"
"Sel0<14>v" ":2v"
"Sel0<13>v" ":3v"
"Sel0<12>v" ":4v"
"Sel0<11>v" ":5v"
"Sel0<10>v" ":6v"
"Sel0<9>v" ":7v"
"Sel0<8>v" ":8v"
"Sel0<7>v" ":9v"
"Sel0<6>v" ":10v"
"Sel0<5>v" ":11v"
"Sel0<4>v" ":12v"
"Sel0<3>v" ":13v"
"Sel0<2>v" ":14v"
"Sel0<1>v" ":15v"
"Sel0<0>v" ":16v"
"Sel1v" ":17v"
"WL<31>v" ":18v"
"WL<30>v" ":19v"
"WL<29>v" ":20v"
"WL<28>v" ":21v"
"WL<27>v" ":22v"
"WL<26>v" ":23v"
"WL<25>v" ":24v"
"WL<24>v" ":25v"
"WL<23>v" ":26v"
"WL<22>v" ":27v"
"WL<21>v" ":28v"
"WL<20>v" ":29v"
"WL<19>v" ":30v"
"WL<18>v" ":31v"
"WL<17>v" ":32v"
"WL<16>v" ":33v"
"WL<15>v" ":34v"
"WL<14>v" ":35v"
"WL<13>v" ":36v"
"WL<12>v" ":37v"
"WL<11>v" ":38v"
"WL<10>v" ":39v"
"WL<9>v" ":40v"
"WL<8>v" ":41v"
"WL<7>v" ":42v"
"WL<6>v" ":43v"
"WL<5>v" ":44v"
"WL<4>v" ":45v"
"WL<3>v" ":46v"
"WL<2>v" ":47v"
"WL<1>v" ":48v"
"WL<0>v" ":49v"
