HEADER
"PSFversion" "1.00"
"I1n" "INV"
"I0n" "NAND2"
"A<1>v" ":1v"
"A<0>v" ":2v"
"WLv" ":3v"
