HEADER
"PSFversion" "1.00"
"I5n I4n" "Pre_L0_1t2"
"A<3>v" ":1v"
"A<2>v" ":2v"
"ADDR<1>v" ":3v"
"ADDR<0>v" ":4v"
"ADDRb<1>v" ":5v"
"ADDRb<0>v" ":6v"
"AOut<15>v" ":7v"
"AOut<14>v" ":8v"
"AOut<13>v" ":9v"
"AOut<12>v" ":10v"
"AOut<11>v" ":11v"
"AOut<10>v" ":12v"
"AOut<9>v" ":13v"
"AOut<8>v" ":14v"
"AOut<7>v" ":15v"
"AOut<6>v" ":16v"
"AOut<5>v" ":17v"
"AOut<4>v" ":18v"
"AOut<3>v" ":19v"
"AOut<2>v" ":20v"
"AOut<1>v" ":21v"
"AOut<0>v" ":22v"
