HEADER
"PSFversion" "1.00"
"SEL1<15>v" ":SEL1\\[15\\]v"
"WLSEL<511>v" ":WLSEL\\[511\\]v"
"SEL0<15>v" ":SEL0\\[15\\]v"
"WLSEL<510>v" ":WLSEL\\[510\\]v"
"WLSEL<509>v" ":WLSEL\\[509\\]v"
"SEL0<14>v" ":SEL0\\[14\\]v"
"WLSEL<508>v" ":WLSEL\\[508\\]v"
"WLSEL<507>v" ":WLSEL\\[507\\]v"
"SEL0<13>v" ":SEL0\\[13\\]v"
"WLSEL<506>v" ":WLSEL\\[506\\]v"
"WLSEL<505>v" ":WLSEL\\[505\\]v"
"SEL0<12>v" ":SEL0\\[12\\]v"
"WLSEL<504>v" ":WLSEL\\[504\\]v"
"WLSEL<503>v" ":WLSEL\\[503\\]v"
"SEL0<11>v" ":SEL0\\[11\\]v"
"WLSEL<502>v" ":WLSEL\\[502\\]v"
"WLSEL<501>v" ":WLSEL\\[501\\]v"
"SEL0<10>v" ":SEL0\\[10\\]v"
"WLSEL<500>v" ":WLSEL\\[500\\]v"
"WLSEL<499>v" ":WLSEL\\[499\\]v"
"SEL0<9>v" ":SEL0\\[9\\]v"
"WLSEL<498>v" ":WLSEL\\[498\\]v"
"WLSEL<497>v" ":WLSEL\\[497\\]v"
"SEL0<8>v" ":SEL0\\[8\\]v"
"WLSEL<496>v" ":WLSEL\\[496\\]v"
"WLSEL<495>v" ":WLSEL\\[495\\]v"
"SEL0<7>v" ":SEL0\\[7\\]v"
"WLSEL<494>v" ":WLSEL\\[494\\]v"
"WLSEL<493>v" ":WLSEL\\[493\\]v"
"SEL0<6>v" ":SEL0\\[6\\]v"
"WLSEL<492>v" ":WLSEL\\[492\\]v"
"WLSEL<491>v" ":WLSEL\\[491\\]v"
"SEL0<5>v" ":SEL0\\[5\\]v"
"WLSEL<490>v" ":WLSEL\\[490\\]v"
"WLSEL<489>v" ":WLSEL\\[489\\]v"
"SEL0<4>v" ":SEL0\\[4\\]v"
"WLSEL<488>v" ":WLSEL\\[488\\]v"
"WLSEL<487>v" ":WLSEL\\[487\\]v"
"SEL0<3>v" ":SEL0\\[3\\]v"
"WLSEL<486>v" ":WLSEL\\[486\\]v"
"WLSEL<485>v" ":WLSEL\\[485\\]v"
"SEL0<2>v" ":SEL0\\[2\\]v"
"WLSEL<484>v" ":WLSEL\\[484\\]v"
"WLSEL<483>v" ":WLSEL\\[483\\]v"
"SEL0<1>v" ":SEL0\\[1\\]v"
"WLSEL<482>v" ":WLSEL\\[482\\]v"
"WLSEL<481>v" ":WLSEL\\[481\\]v"
"SEL0<0>v" ":SEL0\\[0\\]v"
"WLSEL<480>v" ":WLSEL\\[480\\]v"
"SEL1<14>v" ":SEL1\\[14\\]v"
"WLSEL<479>v" ":WLSEL\\[479\\]v"
"WLSEL<478>v" ":WLSEL\\[478\\]v"
"WLSEL<477>v" ":WLSEL\\[477\\]v"
"WLSEL<476>v" ":WLSEL\\[476\\]v"
"WLSEL<475>v" ":WLSEL\\[475\\]v"
"WLSEL<474>v" ":WLSEL\\[474\\]v"
"WLSEL<473>v" ":WLSEL\\[473\\]v"
"WLSEL<472>v" ":WLSEL\\[472\\]v"
"WLSEL<471>v" ":WLSEL\\[471\\]v"
"WLSEL<470>v" ":WLSEL\\[470\\]v"
"WLSEL<469>v" ":WLSEL\\[469\\]v"
"WLSEL<468>v" ":WLSEL\\[468\\]v"
"WLSEL<467>v" ":WLSEL\\[467\\]v"
"WLSEL<466>v" ":WLSEL\\[466\\]v"
"WLSEL<465>v" ":WLSEL\\[465\\]v"
"WLSEL<464>v" ":WLSEL\\[464\\]v"
"WLSEL<463>v" ":WLSEL\\[463\\]v"
"WLSEL<462>v" ":WLSEL\\[462\\]v"
"WLSEL<461>v" ":WLSEL\\[461\\]v"
"WLSEL<460>v" ":WLSEL\\[460\\]v"
"WLSEL<459>v" ":WLSEL\\[459\\]v"
"WLSEL<458>v" ":WLSEL\\[458\\]v"
"WLSEL<457>v" ":WLSEL\\[457\\]v"
"WLSEL<456>v" ":WLSEL\\[456\\]v"
"WLSEL<455>v" ":WLSEL\\[455\\]v"
"WLSEL<454>v" ":WLSEL\\[454\\]v"
"WLSEL<453>v" ":WLSEL\\[453\\]v"
"WLSEL<452>v" ":WLSEL\\[452\\]v"
"WLSEL<451>v" ":WLSEL\\[451\\]v"
"WLSEL<450>v" ":WLSEL\\[450\\]v"
"WLSEL<449>v" ":WLSEL\\[449\\]v"
"WLSEL<448>v" ":WLSEL\\[448\\]v"
"SEL1<13>v" ":SEL1\\[13\\]v"
"WLSEL<447>v" ":WLSEL\\[447\\]v"
"WLSEL<446>v" ":WLSEL\\[446\\]v"
"WLSEL<445>v" ":WLSEL\\[445\\]v"
"WLSEL<444>v" ":WLSEL\\[444\\]v"
"WLSEL<443>v" ":WLSEL\\[443\\]v"
"WLSEL<442>v" ":WLSEL\\[442\\]v"
"WLSEL<441>v" ":WLSEL\\[441\\]v"
"WLSEL<440>v" ":WLSEL\\[440\\]v"
"WLSEL<439>v" ":WLSEL\\[439\\]v"
"WLSEL<438>v" ":WLSEL\\[438\\]v"
"WLSEL<437>v" ":WLSEL\\[437\\]v"
"WLSEL<436>v" ":WLSEL\\[436\\]v"
"WLSEL<435>v" ":WLSEL\\[435\\]v"
"WLSEL<434>v" ":WLSEL\\[434\\]v"
"WLSEL<433>v" ":WLSEL\\[433\\]v"
"WLSEL<432>v" ":WLSEL\\[432\\]v"
"WLSEL<431>v" ":WLSEL\\[431\\]v"
"WLSEL<430>v" ":WLSEL\\[430\\]v"
"WLSEL<429>v" ":WLSEL\\[429\\]v"
"WLSEL<428>v" ":WLSEL\\[428\\]v"
"WLSEL<427>v" ":WLSEL\\[427\\]v"
"WLSEL<426>v" ":WLSEL\\[426\\]v"
"WLSEL<425>v" ":WLSEL\\[425\\]v"
"WLSEL<424>v" ":WLSEL\\[424\\]v"
"WLSEL<423>v" ":WLSEL\\[423\\]v"
"WLSEL<422>v" ":WLSEL\\[422\\]v"
"WLSEL<421>v" ":WLSEL\\[421\\]v"
"WLSEL<420>v" ":WLSEL\\[420\\]v"
"WLSEL<419>v" ":WLSEL\\[419\\]v"
"WLSEL<418>v" ":WLSEL\\[418\\]v"
"WLSEL<417>v" ":WLSEL\\[417\\]v"
"WLSEL<416>v" ":WLSEL\\[416\\]v"
"SEL1<12>v" ":SEL1\\[12\\]v"
"WLSEL<415>v" ":WLSEL\\[415\\]v"
"WLSEL<414>v" ":WLSEL\\[414\\]v"
"WLSEL<413>v" ":WLSEL\\[413\\]v"
"WLSEL<412>v" ":WLSEL\\[412\\]v"
"WLSEL<411>v" ":WLSEL\\[411\\]v"
"WLSEL<410>v" ":WLSEL\\[410\\]v"
"WLSEL<409>v" ":WLSEL\\[409\\]v"
"WLSEL<408>v" ":WLSEL\\[408\\]v"
"WLSEL<407>v" ":WLSEL\\[407\\]v"
"WLSEL<406>v" ":WLSEL\\[406\\]v"
"WLSEL<405>v" ":WLSEL\\[405\\]v"
"WLSEL<404>v" ":WLSEL\\[404\\]v"
"WLSEL<403>v" ":WLSEL\\[403\\]v"
"WLSEL<402>v" ":WLSEL\\[402\\]v"
"WLSEL<401>v" ":WLSEL\\[401\\]v"
"WLSEL<400>v" ":WLSEL\\[400\\]v"
"WLSEL<399>v" ":WLSEL\\[399\\]v"
"WLSEL<398>v" ":WLSEL\\[398\\]v"
"WLSEL<397>v" ":WLSEL\\[397\\]v"
"WLSEL<396>v" ":WLSEL\\[396\\]v"
"WLSEL<395>v" ":WLSEL\\[395\\]v"
"WLSEL<394>v" ":WLSEL\\[394\\]v"
"WLSEL<393>v" ":WLSEL\\[393\\]v"
"WLSEL<392>v" ":WLSEL\\[392\\]v"
"WLSEL<391>v" ":WLSEL\\[391\\]v"
"WLSEL<390>v" ":WLSEL\\[390\\]v"
"WLSEL<389>v" ":WLSEL\\[389\\]v"
"WLSEL<388>v" ":WLSEL\\[388\\]v"
"WLSEL<387>v" ":WLSEL\\[387\\]v"
"WLSEL<386>v" ":WLSEL\\[386\\]v"
"WLSEL<385>v" ":WLSEL\\[385\\]v"
"WLSEL<384>v" ":WLSEL\\[384\\]v"
"SEL1<11>v" ":SEL1\\[11\\]v"
"WLSEL<383>v" ":WLSEL\\[383\\]v"
"WLSEL<382>v" ":WLSEL\\[382\\]v"
"WLSEL<381>v" ":WLSEL\\[381\\]v"
"WLSEL<380>v" ":WLSEL\\[380\\]v"
"WLSEL<379>v" ":WLSEL\\[379\\]v"
"WLSEL<378>v" ":WLSEL\\[378\\]v"
"WLSEL<377>v" ":WLSEL\\[377\\]v"
"WLSEL<376>v" ":WLSEL\\[376\\]v"
"WLSEL<375>v" ":WLSEL\\[375\\]v"
"WLSEL<374>v" ":WLSEL\\[374\\]v"
"WLSEL<373>v" ":WLSEL\\[373\\]v"
"WLSEL<372>v" ":WLSEL\\[372\\]v"
"WLSEL<371>v" ":WLSEL\\[371\\]v"
"WLSEL<370>v" ":WLSEL\\[370\\]v"
"WLSEL<369>v" ":WLSEL\\[369\\]v"
"WLSEL<368>v" ":WLSEL\\[368\\]v"
"WLSEL<367>v" ":WLSEL\\[367\\]v"
"WLSEL<366>v" ":WLSEL\\[366\\]v"
"WLSEL<365>v" ":WLSEL\\[365\\]v"
"WLSEL<364>v" ":WLSEL\\[364\\]v"
"WLSEL<363>v" ":WLSEL\\[363\\]v"
"WLSEL<362>v" ":WLSEL\\[362\\]v"
"WLSEL<361>v" ":WLSEL\\[361\\]v"
"WLSEL<360>v" ":WLSEL\\[360\\]v"
"WLSEL<359>v" ":WLSEL\\[359\\]v"
"WLSEL<358>v" ":WLSEL\\[358\\]v"
"WLSEL<357>v" ":WLSEL\\[357\\]v"
"WLSEL<356>v" ":WLSEL\\[356\\]v"
"WLSEL<355>v" ":WLSEL\\[355\\]v"
"WLSEL<354>v" ":WLSEL\\[354\\]v"
"WLSEL<353>v" ":WLSEL\\[353\\]v"
"WLSEL<352>v" ":WLSEL\\[352\\]v"
"SEL1<10>v" ":SEL1\\[10\\]v"
"WLSEL<351>v" ":WLSEL\\[351\\]v"
"WLSEL<350>v" ":WLSEL\\[350\\]v"
"WLSEL<349>v" ":WLSEL\\[349\\]v"
"WLSEL<348>v" ":WLSEL\\[348\\]v"
"WLSEL<347>v" ":WLSEL\\[347\\]v"
"WLSEL<346>v" ":WLSEL\\[346\\]v"
"WLSEL<345>v" ":WLSEL\\[345\\]v"
"WLSEL<344>v" ":WLSEL\\[344\\]v"
"WLSEL<343>v" ":WLSEL\\[343\\]v"
"WLSEL<342>v" ":WLSEL\\[342\\]v"
"WLSEL<341>v" ":WLSEL\\[341\\]v"
"WLSEL<340>v" ":WLSEL\\[340\\]v"
"WLSEL<339>v" ":WLSEL\\[339\\]v"
"WLSEL<338>v" ":WLSEL\\[338\\]v"
"WLSEL<337>v" ":WLSEL\\[337\\]v"
"WLSEL<336>v" ":WLSEL\\[336\\]v"
"WLSEL<335>v" ":WLSEL\\[335\\]v"
"WLSEL<334>v" ":WLSEL\\[334\\]v"
"WLSEL<333>v" ":WLSEL\\[333\\]v"
"WLSEL<332>v" ":WLSEL\\[332\\]v"
"WLSEL<331>v" ":WLSEL\\[331\\]v"
"WLSEL<330>v" ":WLSEL\\[330\\]v"
"WLSEL<329>v" ":WLSEL\\[329\\]v"
"WLSEL<328>v" ":WLSEL\\[328\\]v"
"WLSEL<327>v" ":WLSEL\\[327\\]v"
"WLSEL<326>v" ":WLSEL\\[326\\]v"
"WLSEL<325>v" ":WLSEL\\[325\\]v"
"WLSEL<324>v" ":WLSEL\\[324\\]v"
"WLSEL<323>v" ":WLSEL\\[323\\]v"
"WLSEL<322>v" ":WLSEL\\[322\\]v"
"WLSEL<321>v" ":WLSEL\\[321\\]v"
"WLSEL<320>v" ":WLSEL\\[320\\]v"
"SEL1<9>v" ":SEL1\\[9\\]v"
"WLSEL<319>v" ":WLSEL\\[319\\]v"
"WLSEL<318>v" ":WLSEL\\[318\\]v"
"WLSEL<317>v" ":WLSEL\\[317\\]v"
"WLSEL<316>v" ":WLSEL\\[316\\]v"
"WLSEL<315>v" ":WLSEL\\[315\\]v"
"WLSEL<314>v" ":WLSEL\\[314\\]v"
"WLSEL<313>v" ":WLSEL\\[313\\]v"
"WLSEL<312>v" ":WLSEL\\[312\\]v"
"WLSEL<311>v" ":WLSEL\\[311\\]v"
"WLSEL<310>v" ":WLSEL\\[310\\]v"
"WLSEL<309>v" ":WLSEL\\[309\\]v"
"WLSEL<308>v" ":WLSEL\\[308\\]v"
"WLSEL<307>v" ":WLSEL\\[307\\]v"
"WLSEL<306>v" ":WLSEL\\[306\\]v"
"WLSEL<305>v" ":WLSEL\\[305\\]v"
"WLSEL<304>v" ":WLSEL\\[304\\]v"
"WLSEL<303>v" ":WLSEL\\[303\\]v"
"WLSEL<302>v" ":WLSEL\\[302\\]v"
"WLSEL<301>v" ":WLSEL\\[301\\]v"
"WLSEL<300>v" ":WLSEL\\[300\\]v"
"WLSEL<299>v" ":WLSEL\\[299\\]v"
"WLSEL<298>v" ":WLSEL\\[298\\]v"
"WLSEL<297>v" ":WLSEL\\[297\\]v"
"WLSEL<296>v" ":WLSEL\\[296\\]v"
"WLSEL<295>v" ":WLSEL\\[295\\]v"
"WLSEL<294>v" ":WLSEL\\[294\\]v"
"WLSEL<293>v" ":WLSEL\\[293\\]v"
"WLSEL<292>v" ":WLSEL\\[292\\]v"
"WLSEL<291>v" ":WLSEL\\[291\\]v"
"WLSEL<290>v" ":WLSEL\\[290\\]v"
"WLSEL<289>v" ":WLSEL\\[289\\]v"
"WLSEL<288>v" ":WLSEL\\[288\\]v"
"SEL1<8>v" ":SEL1\\[8\\]v"
"WLSEL<287>v" ":WLSEL\\[287\\]v"
"WLSEL<286>v" ":WLSEL\\[286\\]v"
"WLSEL<285>v" ":WLSEL\\[285\\]v"
"WLSEL<284>v" ":WLSEL\\[284\\]v"
"WLSEL<283>v" ":WLSEL\\[283\\]v"
"WLSEL<282>v" ":WLSEL\\[282\\]v"
"WLSEL<281>v" ":WLSEL\\[281\\]v"
"WLSEL<280>v" ":WLSEL\\[280\\]v"
"WLSEL<279>v" ":WLSEL\\[279\\]v"
"WLSEL<278>v" ":WLSEL\\[278\\]v"
"WLSEL<277>v" ":WLSEL\\[277\\]v"
"WLSEL<276>v" ":WLSEL\\[276\\]v"
"WLSEL<275>v" ":WLSEL\\[275\\]v"
"WLSEL<274>v" ":WLSEL\\[274\\]v"
"WLSEL<273>v" ":WLSEL\\[273\\]v"
"WLSEL<272>v" ":WLSEL\\[272\\]v"
"WLSEL<271>v" ":WLSEL\\[271\\]v"
"WLSEL<270>v" ":WLSEL\\[270\\]v"
"WLSEL<269>v" ":WLSEL\\[269\\]v"
"WLSEL<268>v" ":WLSEL\\[268\\]v"
"WLSEL<267>v" ":WLSEL\\[267\\]v"
"WLSEL<266>v" ":WLSEL\\[266\\]v"
"WLSEL<265>v" ":WLSEL\\[265\\]v"
"WLSEL<264>v" ":WLSEL\\[264\\]v"
"WLSEL<263>v" ":WLSEL\\[263\\]v"
"WLSEL<262>v" ":WLSEL\\[262\\]v"
"WLSEL<261>v" ":WLSEL\\[261\\]v"
"WLSEL<260>v" ":WLSEL\\[260\\]v"
"WLSEL<259>v" ":WLSEL\\[259\\]v"
"WLSEL<258>v" ":WLSEL\\[258\\]v"
"WLSEL<257>v" ":WLSEL\\[257\\]v"
"WLSEL<256>v" ":WLSEL\\[256\\]v"
"SEL1<7>v" ":SEL1\\[7\\]v"
"WLSEL<255>v" ":WLSEL\\[255\\]v"
"WLSEL<254>v" ":WLSEL\\[254\\]v"
"WLSEL<253>v" ":WLSEL\\[253\\]v"
"WLSEL<252>v" ":WLSEL\\[252\\]v"
"WLSEL<251>v" ":WLSEL\\[251\\]v"
"WLSEL<250>v" ":WLSEL\\[250\\]v"
"WLSEL<249>v" ":WLSEL\\[249\\]v"
"WLSEL<248>v" ":WLSEL\\[248\\]v"
"WLSEL<247>v" ":WLSEL\\[247\\]v"
"WLSEL<246>v" ":WLSEL\\[246\\]v"
"WLSEL<245>v" ":WLSEL\\[245\\]v"
"WLSEL<244>v" ":WLSEL\\[244\\]v"
"WLSEL<243>v" ":WLSEL\\[243\\]v"
"WLSEL<242>v" ":WLSEL\\[242\\]v"
"WLSEL<241>v" ":WLSEL\\[241\\]v"
"WLSEL<240>v" ":WLSEL\\[240\\]v"
"WLSEL<239>v" ":WLSEL\\[239\\]v"
"WLSEL<238>v" ":WLSEL\\[238\\]v"
"WLSEL<237>v" ":WLSEL\\[237\\]v"
"WLSEL<236>v" ":WLSEL\\[236\\]v"
"WLSEL<235>v" ":WLSEL\\[235\\]v"
"WLSEL<234>v" ":WLSEL\\[234\\]v"
"WLSEL<233>v" ":WLSEL\\[233\\]v"
"WLSEL<232>v" ":WLSEL\\[232\\]v"
"WLSEL<231>v" ":WLSEL\\[231\\]v"
"WLSEL<230>v" ":WLSEL\\[230\\]v"
"WLSEL<229>v" ":WLSEL\\[229\\]v"
"WLSEL<228>v" ":WLSEL\\[228\\]v"
"WLSEL<227>v" ":WLSEL\\[227\\]v"
"WLSEL<226>v" ":WLSEL\\[226\\]v"
"WLSEL<225>v" ":WLSEL\\[225\\]v"
"WLSEL<224>v" ":WLSEL\\[224\\]v"
"SEL1<6>v" ":SEL1\\[6\\]v"
"WLSEL<223>v" ":WLSEL\\[223\\]v"
"WLSEL<222>v" ":WLSEL\\[222\\]v"
"WLSEL<221>v" ":WLSEL\\[221\\]v"
"WLSEL<220>v" ":WLSEL\\[220\\]v"
"WLSEL<219>v" ":WLSEL\\[219\\]v"
"WLSEL<218>v" ":WLSEL\\[218\\]v"
"WLSEL<217>v" ":WLSEL\\[217\\]v"
"WLSEL<216>v" ":WLSEL\\[216\\]v"
"WLSEL<215>v" ":WLSEL\\[215\\]v"
"WLSEL<214>v" ":WLSEL\\[214\\]v"
"WLSEL<213>v" ":WLSEL\\[213\\]v"
"WLSEL<212>v" ":WLSEL\\[212\\]v"
"WLSEL<211>v" ":WLSEL\\[211\\]v"
"WLSEL<210>v" ":WLSEL\\[210\\]v"
"WLSEL<209>v" ":WLSEL\\[209\\]v"
"WLSEL<208>v" ":WLSEL\\[208\\]v"
"WLSEL<207>v" ":WLSEL\\[207\\]v"
"WLSEL<206>v" ":WLSEL\\[206\\]v"
"WLSEL<205>v" ":WLSEL\\[205\\]v"
"WLSEL<204>v" ":WLSEL\\[204\\]v"
"WLSEL<203>v" ":WLSEL\\[203\\]v"
"WLSEL<202>v" ":WLSEL\\[202\\]v"
"WLSEL<201>v" ":WLSEL\\[201\\]v"
"WLSEL<200>v" ":WLSEL\\[200\\]v"
"WLSEL<199>v" ":WLSEL\\[199\\]v"
"WLSEL<198>v" ":WLSEL\\[198\\]v"
"WLSEL<197>v" ":WLSEL\\[197\\]v"
"WLSEL<196>v" ":WLSEL\\[196\\]v"
"WLSEL<195>v" ":WLSEL\\[195\\]v"
"WLSEL<194>v" ":WLSEL\\[194\\]v"
"WLSEL<193>v" ":WLSEL\\[193\\]v"
"WLSEL<192>v" ":WLSEL\\[192\\]v"
"SEL1<5>v" ":SEL1\\[5\\]v"
"WLSEL<191>v" ":WLSEL\\[191\\]v"
"WLSEL<190>v" ":WLSEL\\[190\\]v"
"WLSEL<189>v" ":WLSEL\\[189\\]v"
"WLSEL<188>v" ":WLSEL\\[188\\]v"
"WLSEL<187>v" ":WLSEL\\[187\\]v"
"WLSEL<186>v" ":WLSEL\\[186\\]v"
"WLSEL<185>v" ":WLSEL\\[185\\]v"
"WLSEL<184>v" ":WLSEL\\[184\\]v"
"WLSEL<183>v" ":WLSEL\\[183\\]v"
"WLSEL<182>v" ":WLSEL\\[182\\]v"
"WLSEL<181>v" ":WLSEL\\[181\\]v"
"WLSEL<180>v" ":WLSEL\\[180\\]v"
"WLSEL<179>v" ":WLSEL\\[179\\]v"
"WLSEL<178>v" ":WLSEL\\[178\\]v"
"WLSEL<177>v" ":WLSEL\\[177\\]v"
"WLSEL<176>v" ":WLSEL\\[176\\]v"
"WLSEL<175>v" ":WLSEL\\[175\\]v"
"WLSEL<174>v" ":WLSEL\\[174\\]v"
"WLSEL<173>v" ":WLSEL\\[173\\]v"
"WLSEL<172>v" ":WLSEL\\[172\\]v"
"WLSEL<171>v" ":WLSEL\\[171\\]v"
"WLSEL<170>v" ":WLSEL\\[170\\]v"
"WLSEL<169>v" ":WLSEL\\[169\\]v"
"WLSEL<168>v" ":WLSEL\\[168\\]v"
"WLSEL<167>v" ":WLSEL\\[167\\]v"
"WLSEL<166>v" ":WLSEL\\[166\\]v"
"WLSEL<165>v" ":WLSEL\\[165\\]v"
"WLSEL<164>v" ":WLSEL\\[164\\]v"
"WLSEL<163>v" ":WLSEL\\[163\\]v"
"WLSEL<162>v" ":WLSEL\\[162\\]v"
"WLSEL<161>v" ":WLSEL\\[161\\]v"
"WLSEL<160>v" ":WLSEL\\[160\\]v"
"SEL1<4>v" ":SEL1\\[4\\]v"
"WLSEL<159>v" ":WLSEL\\[159\\]v"
"WLSEL<158>v" ":WLSEL\\[158\\]v"
"WLSEL<157>v" ":WLSEL\\[157\\]v"
"WLSEL<156>v" ":WLSEL\\[156\\]v"
"WLSEL<155>v" ":WLSEL\\[155\\]v"
"WLSEL<154>v" ":WLSEL\\[154\\]v"
"WLSEL<153>v" ":WLSEL\\[153\\]v"
"WLSEL<152>v" ":WLSEL\\[152\\]v"
"WLSEL<151>v" ":WLSEL\\[151\\]v"
"WLSEL<150>v" ":WLSEL\\[150\\]v"
"WLSEL<149>v" ":WLSEL\\[149\\]v"
"WLSEL<148>v" ":WLSEL\\[148\\]v"
"WLSEL<147>v" ":WLSEL\\[147\\]v"
"WLSEL<146>v" ":WLSEL\\[146\\]v"
"WLSEL<145>v" ":WLSEL\\[145\\]v"
"WLSEL<144>v" ":WLSEL\\[144\\]v"
"WLSEL<143>v" ":WLSEL\\[143\\]v"
"WLSEL<142>v" ":WLSEL\\[142\\]v"
"WLSEL<141>v" ":WLSEL\\[141\\]v"
"WLSEL<140>v" ":WLSEL\\[140\\]v"
"WLSEL<139>v" ":WLSEL\\[139\\]v"
"WLSEL<138>v" ":WLSEL\\[138\\]v"
"WLSEL<137>v" ":WLSEL\\[137\\]v"
"WLSEL<136>v" ":WLSEL\\[136\\]v"
"WLSEL<135>v" ":WLSEL\\[135\\]v"
"WLSEL<134>v" ":WLSEL\\[134\\]v"
"WLSEL<133>v" ":WLSEL\\[133\\]v"
"WLSEL<132>v" ":WLSEL\\[132\\]v"
"WLSEL<131>v" ":WLSEL\\[131\\]v"
"WLSEL<130>v" ":WLSEL\\[130\\]v"
"WLSEL<129>v" ":WLSEL\\[129\\]v"
"WLSEL<128>v" ":WLSEL\\[128\\]v"
"SEL1<3>v" ":SEL1\\[3\\]v"
"WLSEL<127>v" ":WLSEL\\[127\\]v"
"WLSEL<126>v" ":WLSEL\\[126\\]v"
"WLSEL<125>v" ":WLSEL\\[125\\]v"
"WLSEL<124>v" ":WLSEL\\[124\\]v"
"WLSEL<123>v" ":WLSEL\\[123\\]v"
"WLSEL<122>v" ":WLSEL\\[122\\]v"
"WLSEL<121>v" ":WLSEL\\[121\\]v"
"WLSEL<120>v" ":WLSEL\\[120\\]v"
"WLSEL<119>v" ":WLSEL\\[119\\]v"
"WLSEL<118>v" ":WLSEL\\[118\\]v"
"WLSEL<117>v" ":WLSEL\\[117\\]v"
"WLSEL<116>v" ":WLSEL\\[116\\]v"
"WLSEL<115>v" ":WLSEL\\[115\\]v"
"WLSEL<114>v" ":WLSEL\\[114\\]v"
"WLSEL<113>v" ":WLSEL\\[113\\]v"
"WLSEL<112>v" ":WLSEL\\[112\\]v"
"WLSEL<111>v" ":WLSEL\\[111\\]v"
"WLSEL<110>v" ":WLSEL\\[110\\]v"
"WLSEL<109>v" ":WLSEL\\[109\\]v"
"WLSEL<108>v" ":WLSEL\\[108\\]v"
"WLSEL<107>v" ":WLSEL\\[107\\]v"
"WLSEL<106>v" ":WLSEL\\[106\\]v"
"WLSEL<105>v" ":WLSEL\\[105\\]v"
"WLSEL<104>v" ":WLSEL\\[104\\]v"
"WLSEL<103>v" ":WLSEL\\[103\\]v"
"WLSEL<102>v" ":WLSEL\\[102\\]v"
"WLSEL<101>v" ":WLSEL\\[101\\]v"
"WLSEL<100>v" ":WLSEL\\[100\\]v"
"WLSEL<99>v" ":WLSEL\\[99\\]v"
"WLSEL<98>v" ":WLSEL\\[98\\]v"
"WLSEL<97>v" ":WLSEL\\[97\\]v"
"WLSEL<96>v" ":WLSEL\\[96\\]v"
"SEL1<2>v" ":SEL1\\[2\\]v"
"WLSEL<95>v" ":WLSEL\\[95\\]v"
"WLSEL<94>v" ":WLSEL\\[94\\]v"
"WLSEL<93>v" ":WLSEL\\[93\\]v"
"WLSEL<92>v" ":WLSEL\\[92\\]v"
"WLSEL<91>v" ":WLSEL\\[91\\]v"
"WLSEL<90>v" ":WLSEL\\[90\\]v"
"WLSEL<89>v" ":WLSEL\\[89\\]v"
"WLSEL<88>v" ":WLSEL\\[88\\]v"
"WLSEL<87>v" ":WLSEL\\[87\\]v"
"WLSEL<86>v" ":WLSEL\\[86\\]v"
"WLSEL<85>v" ":WLSEL\\[85\\]v"
"WLSEL<84>v" ":WLSEL\\[84\\]v"
"WLSEL<83>v" ":WLSEL\\[83\\]v"
"WLSEL<82>v" ":WLSEL\\[82\\]v"
"WLSEL<81>v" ":WLSEL\\[81\\]v"
"WLSEL<80>v" ":WLSEL\\[80\\]v"
"WLSEL<79>v" ":WLSEL\\[79\\]v"
"WLSEL<78>v" ":WLSEL\\[78\\]v"
"WLSEL<77>v" ":WLSEL\\[77\\]v"
"WLSEL<76>v" ":WLSEL\\[76\\]v"
"WLSEL<75>v" ":WLSEL\\[75\\]v"
"WLSEL<74>v" ":WLSEL\\[74\\]v"
"WLSEL<73>v" ":WLSEL\\[73\\]v"
"WLSEL<72>v" ":WLSEL\\[72\\]v"
"WLSEL<71>v" ":WLSEL\\[71\\]v"
"WLSEL<70>v" ":WLSEL\\[70\\]v"
"WLSEL<69>v" ":WLSEL\\[69\\]v"
"WLSEL<68>v" ":WLSEL\\[68\\]v"
"WLSEL<67>v" ":WLSEL\\[67\\]v"
"WLSEL<66>v" ":WLSEL\\[66\\]v"
"WLSEL<65>v" ":WLSEL\\[65\\]v"
"WLSEL<64>v" ":WLSEL\\[64\\]v"
"SEL1<1>v" ":SEL1\\[1\\]v"
"WLSEL<63>v" ":WLSEL\\[63\\]v"
"WLSEL<62>v" ":WLSEL\\[62\\]v"
"WLSEL<61>v" ":WLSEL\\[61\\]v"
"WLSEL<60>v" ":WLSEL\\[60\\]v"
"WLSEL<59>v" ":WLSEL\\[59\\]v"
"WLSEL<58>v" ":WLSEL\\[58\\]v"
"WLSEL<57>v" ":WLSEL\\[57\\]v"
"WLSEL<56>v" ":WLSEL\\[56\\]v"
"WLSEL<55>v" ":WLSEL\\[55\\]v"
"WLSEL<54>v" ":WLSEL\\[54\\]v"
"WLSEL<53>v" ":WLSEL\\[53\\]v"
"WLSEL<52>v" ":WLSEL\\[52\\]v"
"WLSEL<51>v" ":WLSEL\\[51\\]v"
"WLSEL<50>v" ":WLSEL\\[50\\]v"
"WLSEL<49>v" ":WLSEL\\[49\\]v"
"WLSEL<48>v" ":WLSEL\\[48\\]v"
"WLSEL<47>v" ":WLSEL\\[47\\]v"
"WLSEL<46>v" ":WLSEL\\[46\\]v"
"WLSEL<45>v" ":WLSEL\\[45\\]v"
"WLSEL<44>v" ":WLSEL\\[44\\]v"
"WLSEL<43>v" ":WLSEL\\[43\\]v"
"WLSEL<42>v" ":WLSEL\\[42\\]v"
"WLSEL<41>v" ":WLSEL\\[41\\]v"
"WLSEL<40>v" ":WLSEL\\[40\\]v"
"WLSEL<39>v" ":WLSEL\\[39\\]v"
"WLSEL<38>v" ":WLSEL\\[38\\]v"
"WLSEL<37>v" ":WLSEL\\[37\\]v"
"WLSEL<36>v" ":WLSEL\\[36\\]v"
"WLSEL<35>v" ":WLSEL\\[35\\]v"
"WLSEL<34>v" ":WLSEL\\[34\\]v"
"WLSEL<33>v" ":WLSEL\\[33\\]v"
"WLSEL<32>v" ":WLSEL\\[32\\]v"
"SEL1<0>v" ":SEL1\\[0\\]v"
"WLSEL<31>v" ":WLSEL\\[31\\]v"
"WLSEL<30>v" ":WLSEL\\[30\\]v"
"WLSEL<29>v" ":WLSEL\\[29\\]v"
"WLSEL<28>v" ":WLSEL\\[28\\]v"
"WLSEL<27>v" ":WLSEL\\[27\\]v"
"WLSEL<26>v" ":WLSEL\\[26\\]v"
"WLSEL<25>v" ":WLSEL\\[25\\]v"
"WLSEL<24>v" ":WLSEL\\[24\\]v"
"WLSEL<23>v" ":WLSEL\\[23\\]v"
"WLSEL<22>v" ":WLSEL\\[22\\]v"
"WLSEL<21>v" ":WLSEL\\[21\\]v"
"WLSEL<20>v" ":WLSEL\\[20\\]v"
"WLSEL<19>v" ":WLSEL\\[19\\]v"
"WLSEL<18>v" ":WLSEL\\[18\\]v"
"WLSEL<17>v" ":WLSEL\\[17\\]v"
"WLSEL<16>v" ":WLSEL\\[16\\]v"
"WLSEL<15>v" ":WLSEL\\[15\\]v"
"WLSEL<14>v" ":WLSEL\\[14\\]v"
"WLSEL<13>v" ":WLSEL\\[13\\]v"
"WLSEL<12>v" ":WLSEL\\[12\\]v"
"WLSEL<11>v" ":WLSEL\\[11\\]v"
"WLSEL<10>v" ":WLSEL\\[10\\]v"
"WLSEL<9>v" ":WLSEL\\[9\\]v"
"WLSEL<8>v" ":WLSEL\\[8\\]v"
"WLSEL<7>v" ":WLSEL\\[7\\]v"
"WLSEL<6>v" ":WLSEL\\[6\\]v"
"WLSEL<5>v" ":WLSEL\\[5\\]v"
"WLSEL<4>v" ":WLSEL\\[4\\]v"
"WLSEL<3>v" ":WLSEL\\[3\\]v"
"WLSEL<2>v" ":WLSEL\\[2\\]v"
"WLSEL<1>v" ":WLSEL\\[1\\]v"
"WLSEL<0>v" ":WLSEL\\[0\\]v"
