HEADER
"PSFversion" "1.00"
"IPost<255>n IPost<254>n IPost<253>n IPost<252>n IPost<251>n IPost<250>n IPost<249>n IPost<248>n IPost<247>n IPost<246>n IPost<245>n IPost<244>n IPost<243>n IPost<242>n IPost<241>n IPost<240>n IPost<239>n IPost<238>n IPost<237>n IPost<236>n IPost<235>n IPost<234>n IPost<233>n IPost<232>n IPost<231>n IPost<230>n IPost<229>n IPost<228>n IPost<227>n IPost<226>n IPost<225>n IPost<224>n IPost<223>n IPost<222>n IPost<221>n IPost<220>n IPost<219>n IPost<218>n IPost<217>n IPost<216>n IPost<215>n IPost<214>n IPost<213>n IPost<212>n IPost<211>n IPost<210>n IPost<209>n IPost<208>n IPost<207>n IPost<206>n IPost<205>n IPost<204>n IPost<203>n IPost<202>n IPost<201>n IPost<200>n IPost<199>n IPost<198>n IPost<197>n IPost<196>n IPost<195>n IPost<194>n IPost<193>n IPost<192>n IPost<191>n IPost<190>n IPost<189>n IPost<188>n IPost<187>n IPost<186>n IPost<185>n IPost<184>n IPost<183>n IPost<182>n IPost<181>n IPost<180>n IPost<179>n IPost<178>n IPost<177>n IPost<176>n IPost<175>n IPost<174>n IPost<173>n IPost<172>n IPost<171>n IPost<170>n IPost<169>n IPost<168>n IPost<167>n IPost<166>n IPost<165>n IPost<164>n IPost<163>n IPost<162>n IPost<161>n IPost<160>n IPost<159>n IPost<158>n IPost<157>n IPost<156>n IPost<155>n IPost<154>n IPost<153>n IPost<152>n IPost<151>n IPost<150>n IPost<149>n IPost<148>n IPost<147>n IPost<146>n IPost<145>n IPost<144>n IPost<143>n IPost<142>n IPost<141>n IPost<140>n IPost<139>n IPost<138>n IPost<137>n IPost<136>n IPost<135>n IPost<134>n IPost<133>n IPost<132>n IPost<131>n IPost<130>n IPost<129>n IPost<128>n IPost<127>n IPost<126>n IPost<125>n IPost<124>n IPost<123>n IPost<122>n IPost<121>n IPost<120>n IPost<119>n IPost<118>n IPost<117>n IPost<116>n IPost<115>n IPost<114>n IPost<113>n IPost<112>n IPost<111>n IPost<110>n IPost<109>n IPost<108>n IPost<107>n IPost<106>n IPost<105>n IPost<104>n IPost<103>n IPost<102>n IPost<101>n IPost<100>n IPost<99>n IPost<98>n IPost<97>n IPost<96>n IPost<95>n IPost<94>n IPost<93>n IPost<92>n IPost<91>n IPost<90>n IPost<89>n IPost<88>n IPost<87>n IPost<86>n IPost<85>n IPost<84>n IPost<83>n IPost<82>n IPost<81>n IPost<80>n IPost<79>n IPost<78>n IPost<77>n IPost<76>n IPost<75>n IPost<74>n IPost<73>n IPost<72>n IPost<71>n IPost<70>n IPost<69>n IPost<68>n IPost<67>n IPost<66>n IPost<65>n IPost<64>n IPost<63>n IPost<62>n IPost<61>n IPost<60>n IPost<59>n IPost<58>n IPost<57>n IPost<56>n IPost<55>n IPost<54>n IPost<53>n IPost<52>n IPost<51>n IPost<50>n IPost<49>n IPost<48>n IPost<47>n IPost<46>n IPost<45>n IPost<44>n IPost<43>n IPost<42>n IPost<41>n IPost<40>n IPost<39>n IPost<38>n IPost<37>n IPost<36>n IPost<35>n IPost<34>n IPost<33>n IPost<32>n IPost<31>n IPost<30>n IPost<29>n IPost<28>n IPost<27>n IPost<26>n IPost<25>n IPost<24>n IPost<23>n IPost<22>n IPost<21>n IPost<20>n IPost<19>n IPost<18>n IPost<17>n IPost<16>n IPost<15>n IPost<14>n IPost<13>n IPost<12>n IPost<11>n IPost<10>n IPost<9>n IPost<8>n IPost<7>n IPost<6>n IPost<5>n IPost<4>n IPost<3>n IPost<2>n IPost<1>n IPost<0>n" "Post"
"I9n" "BitCellArray"
"IPre0<15>n IPre0<14>n IPre0<13>n IPre0<12>n IPre0<11>n IPre0<10>n IPre0<9>n IPre0<8>n IPre0<7>n IPre0<6>n IPre0<5>n IPre0<4>n IPre0<3>n IPre0<2>n IPre0<1>n IPre0<0>n IPre1<15>n IPre1<14>n IPre1<13>n IPre1<12>n IPre1<11>n IPre1<10>n IPre1<9>n IPre1<8>n IPre1<7>n IPre1<6>n IPre1<5>n IPre1<4>n IPre1<3>n IPre1<2>n IPre1<1>n IPre1<0>n" "Pre"
"I3n I0n" "Pre_L3_4t16_NAND"
"I16<3>n I16<2>n I16<1>n I16<0>n I19<3>n I19<2>n I19<1>n I19<0>n I18<3>n I18<2>n I18<1>n I18<0>n I17<3>n I17<2>n I17<1>n I17<0>n" "AddrBuf"
"I4<3>n I4<2>n I4<1>n I4<0>n I1<3>n I1<2>n I1<1>n I1<0>n" "INV"
"I7n" "Post_L2_256t2"
"I11<3>n I11<2>n I11<1>n I11<0>n I10<3>n I10<2>n I10<1>n I10<0>n" "BUF"
"ADDR<7>v" ":1v"
"ADDR<6>v" ":2v"
"ADDR<5>v" ":3v"
"ADDR<4>v" ":4v"
"ADDR<3>v" ":5v"
"ADDR<2>v" ":6v"
"ADDR<1>v" ":7v"
"ADDR<0>v" ":8v"
"WL<255>v" ":9v"
"WL<254>v" ":10v"
"WL<253>v" ":11v"
"WL<252>v" ":12v"
"WL<251>v" ":13v"
"WL<250>v" ":14v"
"WL<249>v" ":15v"
"WL<248>v" ":16v"
"WL<247>v" ":17v"
"WL<246>v" ":18v"
"WL<245>v" ":19v"
"WL<244>v" ":20v"
"WL<243>v" ":21v"
"WL<242>v" ":22v"
"WL<241>v" ":23v"
"WL<240>v" ":24v"
"WL<239>v" ":25v"
"WL<238>v" ":26v"
"WL<237>v" ":27v"
"WL<236>v" ":28v"
"WL<235>v" ":29v"
"WL<234>v" ":30v"
"WL<233>v" ":31v"
"WL<232>v" ":32v"
"WL<231>v" ":33v"
"WL<230>v" ":34v"
"WL<229>v" ":35v"
"WL<228>v" ":36v"
"WL<227>v" ":37v"
"WL<226>v" ":38v"
"WL<225>v" ":39v"
"WL<224>v" ":40v"
"WL<223>v" ":41v"
"WL<222>v" ":42v"
"WL<221>v" ":43v"
"WL<220>v" ":44v"
"WL<219>v" ":45v"
"WL<218>v" ":46v"
"WL<217>v" ":47v"
"WL<216>v" ":48v"
"WL<215>v" ":49v"
"WL<214>v" ":50v"
"WL<213>v" ":51v"
"WL<212>v" ":52v"
"WL<211>v" ":53v"
"WL<210>v" ":54v"
"WL<209>v" ":55v"
"WL<208>v" ":56v"
"WL<207>v" ":57v"
"WL<206>v" ":58v"
"WL<205>v" ":59v"
"WL<204>v" ":60v"
"WL<203>v" ":61v"
"WL<202>v" ":62v"
"WL<201>v" ":63v"
"WL<200>v" ":64v"
"WL<199>v" ":65v"
"WL<198>v" ":66v"
"WL<197>v" ":67v"
"WL<196>v" ":68v"
"WL<195>v" ":69v"
"WL<194>v" ":70v"
"WL<193>v" ":71v"
"WL<192>v" ":72v"
"WL<191>v" ":73v"
"WL<190>v" ":74v"
"WL<189>v" ":75v"
"WL<188>v" ":76v"
"WL<187>v" ":77v"
"WL<186>v" ":78v"
"WL<185>v" ":79v"
"WL<184>v" ":80v"
"WL<183>v" ":81v"
"WL<182>v" ":82v"
"WL<181>v" ":83v"
"WL<180>v" ":84v"
"WL<179>v" ":85v"
"WL<178>v" ":86v"
"WL<177>v" ":87v"
"WL<176>v" ":88v"
"WL<175>v" ":89v"
"WL<174>v" ":90v"
"WL<173>v" ":91v"
"WL<172>v" ":92v"
"WL<171>v" ":93v"
"WL<170>v" ":94v"
"WL<169>v" ":95v"
"WL<168>v" ":96v"
"WL<167>v" ":97v"
"WL<166>v" ":98v"
"WL<165>v" ":99v"
"WL<164>v" ":100v"
"WL<163>v" ":101v"
"WL<162>v" ":102v"
"WL<161>v" ":103v"
"WL<160>v" ":104v"
"WL<159>v" ":105v"
"WL<158>v" ":106v"
"WL<157>v" ":107v"
"WL<156>v" ":108v"
"WL<155>v" ":109v"
"WL<154>v" ":110v"
"WL<153>v" ":111v"
"WL<152>v" ":112v"
"WL<151>v" ":113v"
"WL<150>v" ":114v"
"WL<149>v" ":115v"
"WL<148>v" ":116v"
"WL<147>v" ":117v"
"WL<146>v" ":118v"
"WL<145>v" ":119v"
"WL<144>v" ":120v"
"WL<143>v" ":121v"
"WL<142>v" ":122v"
"WL<141>v" ":123v"
"WL<140>v" ":124v"
"WL<139>v" ":125v"
"WL<138>v" ":126v"
"WL<137>v" ":127v"
"WL<136>v" ":128v"
"WL<135>v" ":129v"
"WL<134>v" ":130v"
"WL<133>v" ":131v"
"WL<132>v" ":132v"
"WL<131>v" ":133v"
"WL<130>v" ":134v"
"WL<129>v" ":135v"
"WL<128>v" ":136v"
"WL<127>v" ":137v"
"WL<126>v" ":138v"
"WL<125>v" ":139v"
"WL<124>v" ":140v"
"WL<123>v" ":141v"
"WL<122>v" ":142v"
"WL<121>v" ":143v"
"WL<120>v" ":144v"
"WL<119>v" ":145v"
"WL<118>v" ":146v"
"WL<117>v" ":147v"
"WL<116>v" ":148v"
"WL<115>v" ":149v"
"WL<114>v" ":150v"
"WL<113>v" ":151v"
"WL<112>v" ":152v"
"WL<111>v" ":153v"
"WL<110>v" ":154v"
"WL<109>v" ":155v"
"WL<108>v" ":156v"
"WL<107>v" ":157v"
"WL<106>v" ":158v"
"WL<105>v" ":159v"
"WL<104>v" ":160v"
"WL<103>v" ":161v"
"WL<102>v" ":162v"
"WL<101>v" ":163v"
"WL<100>v" ":164v"
"WL<99>v" ":165v"
"WL<98>v" ":166v"
"WL<97>v" ":167v"
"WL<96>v" ":168v"
"WL<95>v" ":169v"
"WL<94>v" ":170v"
"WL<93>v" ":171v"
"WL<92>v" ":172v"
"WL<91>v" ":173v"
"WL<90>v" ":174v"
"WL<89>v" ":175v"
"WL<88>v" ":176v"
"WL<87>v" ":177v"
"WL<86>v" ":178v"
"WL<85>v" ":179v"
"WL<84>v" ":180v"
"WL<83>v" ":181v"
"WL<82>v" ":182v"
"WL<81>v" ":183v"
"WL<80>v" ":184v"
"WL<79>v" ":185v"
"WL<78>v" ":186v"
"WL<77>v" ":187v"
"WL<76>v" ":188v"
"WL<75>v" ":189v"
"WL<74>v" ":190v"
"WL<73>v" ":191v"
"WL<72>v" ":192v"
"WL<71>v" ":193v"
"WL<70>v" ":194v"
"WL<69>v" ":195v"
"WL<68>v" ":196v"
"WL<67>v" ":197v"
"WL<66>v" ":198v"
"WL<65>v" ":199v"
"WL<64>v" ":200v"
"WL<63>v" ":201v"
"WL<62>v" ":202v"
"WL<61>v" ":203v"
"WL<60>v" ":204v"
"WL<59>v" ":205v"
"WL<58>v" ":206v"
"WL<57>v" ":207v"
"WL<56>v" ":208v"
"WL<55>v" ":209v"
"WL<54>v" ":210v"
"WL<53>v" ":211v"
"WL<52>v" ":212v"
"WL<51>v" ":213v"
"WL<50>v" ":214v"
"WL<49>v" ":215v"
"WL<48>v" ":216v"
"WL<47>v" ":217v"
"WL<46>v" ":218v"
"WL<45>v" ":219v"
"WL<44>v" ":220v"
"WL<43>v" ":221v"
"WL<42>v" ":222v"
"WL<41>v" ":223v"
"WL<40>v" ":224v"
"WL<39>v" ":225v"
"WL<38>v" ":226v"
"WL<37>v" ":227v"
"WL<36>v" ":228v"
"WL<35>v" ":229v"
"WL<34>v" ":230v"
"WL<33>v" ":231v"
"WL<32>v" ":232v"
"WL<31>v" ":233v"
"WL<30>v" ":234v"
"WL<29>v" ":235v"
"WL<28>v" ":236v"
"WL<27>v" ":237v"
"WL<26>v" ":238v"
"WL<25>v" ":239v"
"WL<24>v" ":240v"
"WL<23>v" ":241v"
"WL<22>v" ":242v"
"WL<21>v" ":243v"
"WL<20>v" ":244v"
"WL<19>v" ":245v"
"WL<18>v" ":246v"
"WL<17>v" ":247v"
"WL<16>v" ":248v"
"WL<15>v" ":249v"
"WL<14>v" ":250v"
"WL<13>v" ":251v"
"WL<12>v" ":252v"
"WL<11>v" ":253v"
"WL<10>v" ":254v"
"WL<9>v" ":255v"
"WL<8>v" ":256v"
"WL<7>v" ":257v"
"WL<6>v" ":258v"
"WL<5>v" ":259v"
"WL<4>v" ":260v"
"WL<3>v" ":261v"
"WL<2>v" ":262v"
"WL<1>v" ":263v"
"WL<0>v" ":264v"
