HEADER
"PSFversion" "1.00"
"NM0n" "umc65ll_N_12_LLRVT_spectre"
"PM0n" "umc65ll_P_12_LLRVT_spectre"
"Av" ":1v"
"Zv" ":2v"
