HEADER
"PSFversion" "1.00"
"R0n" "analogLib_res_spectre"
"Cwiren" "analogLib_cap_spectre"
"I0n" "BitCellLoad_L"
"WLv" ":1v"
