HEADER
"PSFversion" "1.00"
"I2n I3n" "basic_cds_thru_spectre"
"Sel0v" ":1v"
"Sel1v" ":2v"
"SelOUT<1>v" ":3v"
"SelOUT<0>v" ":4v"
