HEADER
"PSFversion" "1.00"
"I0n" "project_pex_Post_L2_256t2_Text_spectreText"
"SEL0<15>v" ":1v"
"SEL0<14>v" ":2v"
"SEL0<13>v" ":3v"
"SEL0<12>v" ":4v"
"SEL0<11>v" ":5v"
"SEL0<10>v" ":6v"
"SEL0<9>v" ":7v"
"SEL0<8>v" ":8v"
"SEL0<7>v" ":9v"
"SEL0<6>v" ":10v"
"SEL0<5>v" ":11v"
"SEL0<4>v" ":12v"
"SEL0<3>v" ":13v"
"SEL0<2>v" ":14v"
"SEL0<1>v" ":15v"
"SEL0<0>v" ":16v"
"SEL1<15>v" ":17v"
"SEL1<14>v" ":18v"
"SEL1<13>v" ":19v"
"SEL1<12>v" ":20v"
"SEL1<11>v" ":21v"
"SEL1<10>v" ":22v"
"SEL1<9>v" ":23v"
"SEL1<8>v" ":24v"
"SEL1<7>v" ":25v"
"SEL1<6>v" ":26v"
"SEL1<5>v" ":27v"
"SEL1<4>v" ":28v"
"SEL1<3>v" ":29v"
"SEL1<2>v" ":30v"
"SEL1<1>v" ":31v"
"SEL1<0>v" ":32v"
"WLSEL<511>v" ":33v"
"WLSEL<510>v" ":34v"
"WLSEL<509>v" ":35v"
"WLSEL<508>v" ":36v"
"WLSEL<507>v" ":37v"
"WLSEL<506>v" ":38v"
"WLSEL<505>v" ":39v"
"WLSEL<504>v" ":40v"
"WLSEL<503>v" ":41v"
"WLSEL<502>v" ":42v"
"WLSEL<501>v" ":43v"
"WLSEL<500>v" ":44v"
"WLSEL<499>v" ":45v"
"WLSEL<498>v" ":46v"
"WLSEL<497>v" ":47v"
"WLSEL<496>v" ":48v"
"WLSEL<495>v" ":49v"
"WLSEL<494>v" ":50v"
"WLSEL<493>v" ":51v"
"WLSEL<492>v" ":52v"
"WLSEL<491>v" ":53v"
"WLSEL<490>v" ":54v"
"WLSEL<489>v" ":55v"
"WLSEL<488>v" ":56v"
"WLSEL<487>v" ":57v"
"WLSEL<486>v" ":58v"
"WLSEL<485>v" ":59v"
"WLSEL<484>v" ":60v"
"WLSEL<483>v" ":61v"
"WLSEL<482>v" ":62v"
"WLSEL<481>v" ":63v"
"WLSEL<480>v" ":64v"
"WLSEL<479>v" ":65v"
"WLSEL<478>v" ":66v"
"WLSEL<477>v" ":67v"
"WLSEL<476>v" ":68v"
"WLSEL<475>v" ":69v"
"WLSEL<474>v" ":70v"
"WLSEL<473>v" ":71v"
"WLSEL<472>v" ":72v"
"WLSEL<471>v" ":73v"
"WLSEL<470>v" ":74v"
"WLSEL<469>v" ":75v"
"WLSEL<468>v" ":76v"
"WLSEL<467>v" ":77v"
"WLSEL<466>v" ":78v"
"WLSEL<465>v" ":79v"
"WLSEL<464>v" ":80v"
"WLSEL<463>v" ":81v"
"WLSEL<462>v" ":82v"
"WLSEL<461>v" ":83v"
"WLSEL<460>v" ":84v"
"WLSEL<459>v" ":85v"
"WLSEL<458>v" ":86v"
"WLSEL<457>v" ":87v"
"WLSEL<456>v" ":88v"
"WLSEL<455>v" ":89v"
"WLSEL<454>v" ":90v"
"WLSEL<453>v" ":91v"
"WLSEL<452>v" ":92v"
"WLSEL<451>v" ":93v"
"WLSEL<450>v" ":94v"
"WLSEL<449>v" ":95v"
"WLSEL<448>v" ":96v"
"WLSEL<447>v" ":97v"
"WLSEL<446>v" ":98v"
"WLSEL<445>v" ":99v"
"WLSEL<444>v" ":100v"
"WLSEL<443>v" ":101v"
"WLSEL<442>v" ":102v"
"WLSEL<441>v" ":103v"
"WLSEL<440>v" ":104v"
"WLSEL<439>v" ":105v"
"WLSEL<438>v" ":106v"
"WLSEL<437>v" ":107v"
"WLSEL<436>v" ":108v"
"WLSEL<435>v" ":109v"
"WLSEL<434>v" ":110v"
"WLSEL<433>v" ":111v"
"WLSEL<432>v" ":112v"
"WLSEL<431>v" ":113v"
"WLSEL<430>v" ":114v"
"WLSEL<429>v" ":115v"
"WLSEL<428>v" ":116v"
"WLSEL<427>v" ":117v"
"WLSEL<426>v" ":118v"
"WLSEL<425>v" ":119v"
"WLSEL<424>v" ":120v"
"WLSEL<423>v" ":121v"
"WLSEL<422>v" ":122v"
"WLSEL<421>v" ":123v"
"WLSEL<420>v" ":124v"
"WLSEL<419>v" ":125v"
"WLSEL<418>v" ":126v"
"WLSEL<417>v" ":127v"
"WLSEL<416>v" ":128v"
"WLSEL<415>v" ":129v"
"WLSEL<414>v" ":130v"
"WLSEL<413>v" ":131v"
"WLSEL<412>v" ":132v"
"WLSEL<411>v" ":133v"
"WLSEL<410>v" ":134v"
"WLSEL<409>v" ":135v"
"WLSEL<408>v" ":136v"
"WLSEL<407>v" ":137v"
"WLSEL<406>v" ":138v"
"WLSEL<405>v" ":139v"
"WLSEL<404>v" ":140v"
"WLSEL<403>v" ":141v"
"WLSEL<402>v" ":142v"
"WLSEL<401>v" ":143v"
"WLSEL<400>v" ":144v"
"WLSEL<399>v" ":145v"
"WLSEL<398>v" ":146v"
"WLSEL<397>v" ":147v"
"WLSEL<396>v" ":148v"
"WLSEL<395>v" ":149v"
"WLSEL<394>v" ":150v"
"WLSEL<393>v" ":151v"
"WLSEL<392>v" ":152v"
"WLSEL<391>v" ":153v"
"WLSEL<390>v" ":154v"
"WLSEL<389>v" ":155v"
"WLSEL<388>v" ":156v"
"WLSEL<387>v" ":157v"
"WLSEL<386>v" ":158v"
"WLSEL<385>v" ":159v"
"WLSEL<384>v" ":160v"
"WLSEL<383>v" ":161v"
"WLSEL<382>v" ":162v"
"WLSEL<381>v" ":163v"
"WLSEL<380>v" ":164v"
"WLSEL<379>v" ":165v"
"WLSEL<378>v" ":166v"
"WLSEL<377>v" ":167v"
"WLSEL<376>v" ":168v"
"WLSEL<375>v" ":169v"
"WLSEL<374>v" ":170v"
"WLSEL<373>v" ":171v"
"WLSEL<372>v" ":172v"
"WLSEL<371>v" ":173v"
"WLSEL<370>v" ":174v"
"WLSEL<369>v" ":175v"
"WLSEL<368>v" ":176v"
"WLSEL<367>v" ":177v"
"WLSEL<366>v" ":178v"
"WLSEL<365>v" ":179v"
"WLSEL<364>v" ":180v"
"WLSEL<363>v" ":181v"
"WLSEL<362>v" ":182v"
"WLSEL<361>v" ":183v"
"WLSEL<360>v" ":184v"
"WLSEL<359>v" ":185v"
"WLSEL<358>v" ":186v"
"WLSEL<357>v" ":187v"
"WLSEL<356>v" ":188v"
"WLSEL<355>v" ":189v"
"WLSEL<354>v" ":190v"
"WLSEL<353>v" ":191v"
"WLSEL<352>v" ":192v"
"WLSEL<351>v" ":193v"
"WLSEL<350>v" ":194v"
"WLSEL<349>v" ":195v"
"WLSEL<348>v" ":196v"
"WLSEL<347>v" ":197v"
"WLSEL<346>v" ":198v"
"WLSEL<345>v" ":199v"
"WLSEL<344>v" ":200v"
"WLSEL<343>v" ":201v"
"WLSEL<342>v" ":202v"
"WLSEL<341>v" ":203v"
"WLSEL<340>v" ":204v"
"WLSEL<339>v" ":205v"
"WLSEL<338>v" ":206v"
"WLSEL<337>v" ":207v"
"WLSEL<336>v" ":208v"
"WLSEL<335>v" ":209v"
"WLSEL<334>v" ":210v"
"WLSEL<333>v" ":211v"
"WLSEL<332>v" ":212v"
"WLSEL<331>v" ":213v"
"WLSEL<330>v" ":214v"
"WLSEL<329>v" ":215v"
"WLSEL<328>v" ":216v"
"WLSEL<327>v" ":217v"
"WLSEL<326>v" ":218v"
"WLSEL<325>v" ":219v"
"WLSEL<324>v" ":220v"
"WLSEL<323>v" ":221v"
"WLSEL<322>v" ":222v"
"WLSEL<321>v" ":223v"
"WLSEL<320>v" ":224v"
"WLSEL<319>v" ":225v"
"WLSEL<318>v" ":226v"
"WLSEL<317>v" ":227v"
"WLSEL<316>v" ":228v"
"WLSEL<315>v" ":229v"
"WLSEL<314>v" ":230v"
"WLSEL<313>v" ":231v"
"WLSEL<312>v" ":232v"
"WLSEL<311>v" ":233v"
"WLSEL<310>v" ":234v"
"WLSEL<309>v" ":235v"
"WLSEL<308>v" ":236v"
"WLSEL<307>v" ":237v"
"WLSEL<306>v" ":238v"
"WLSEL<305>v" ":239v"
"WLSEL<304>v" ":240v"
"WLSEL<303>v" ":241v"
"WLSEL<302>v" ":242v"
"WLSEL<301>v" ":243v"
"WLSEL<300>v" ":244v"
"WLSEL<299>v" ":245v"
"WLSEL<298>v" ":246v"
"WLSEL<297>v" ":247v"
"WLSEL<296>v" ":248v"
"WLSEL<295>v" ":249v"
"WLSEL<294>v" ":250v"
"WLSEL<293>v" ":251v"
"WLSEL<292>v" ":252v"
"WLSEL<291>v" ":253v"
"WLSEL<290>v" ":254v"
"WLSEL<289>v" ":255v"
"WLSEL<288>v" ":256v"
"WLSEL<287>v" ":257v"
"WLSEL<286>v" ":258v"
"WLSEL<285>v" ":259v"
"WLSEL<284>v" ":260v"
"WLSEL<283>v" ":261v"
"WLSEL<282>v" ":262v"
"WLSEL<281>v" ":263v"
"WLSEL<280>v" ":264v"
"WLSEL<279>v" ":265v"
"WLSEL<278>v" ":266v"
"WLSEL<277>v" ":267v"
"WLSEL<276>v" ":268v"
"WLSEL<275>v" ":269v"
"WLSEL<274>v" ":270v"
"WLSEL<273>v" ":271v"
"WLSEL<272>v" ":272v"
"WLSEL<271>v" ":273v"
"WLSEL<270>v" ":274v"
"WLSEL<269>v" ":275v"
"WLSEL<268>v" ":276v"
"WLSEL<267>v" ":277v"
"WLSEL<266>v" ":278v"
"WLSEL<265>v" ":279v"
"WLSEL<264>v" ":280v"
"WLSEL<263>v" ":281v"
"WLSEL<262>v" ":282v"
"WLSEL<261>v" ":283v"
"WLSEL<260>v" ":284v"
"WLSEL<259>v" ":285v"
"WLSEL<258>v" ":286v"
"WLSEL<257>v" ":287v"
"WLSEL<256>v" ":288v"
"WLSEL<255>v" ":289v"
"WLSEL<254>v" ":290v"
"WLSEL<253>v" ":291v"
"WLSEL<252>v" ":292v"
"WLSEL<251>v" ":293v"
"WLSEL<250>v" ":294v"
"WLSEL<249>v" ":295v"
"WLSEL<248>v" ":296v"
"WLSEL<247>v" ":297v"
"WLSEL<246>v" ":298v"
"WLSEL<245>v" ":299v"
"WLSEL<244>v" ":300v"
"WLSEL<243>v" ":301v"
"WLSEL<242>v" ":302v"
"WLSEL<241>v" ":303v"
"WLSEL<240>v" ":304v"
"WLSEL<239>v" ":305v"
"WLSEL<238>v" ":306v"
"WLSEL<237>v" ":307v"
"WLSEL<236>v" ":308v"
"WLSEL<235>v" ":309v"
"WLSEL<234>v" ":310v"
"WLSEL<233>v" ":311v"
"WLSEL<232>v" ":312v"
"WLSEL<231>v" ":313v"
"WLSEL<230>v" ":314v"
"WLSEL<229>v" ":315v"
"WLSEL<228>v" ":316v"
"WLSEL<227>v" ":317v"
"WLSEL<226>v" ":318v"
"WLSEL<225>v" ":319v"
"WLSEL<224>v" ":320v"
"WLSEL<223>v" ":321v"
"WLSEL<222>v" ":322v"
"WLSEL<221>v" ":323v"
"WLSEL<220>v" ":324v"
"WLSEL<219>v" ":325v"
"WLSEL<218>v" ":326v"
"WLSEL<217>v" ":327v"
"WLSEL<216>v" ":328v"
"WLSEL<215>v" ":329v"
"WLSEL<214>v" ":330v"
"WLSEL<213>v" ":331v"
"WLSEL<212>v" ":332v"
"WLSEL<211>v" ":333v"
"WLSEL<210>v" ":334v"
"WLSEL<209>v" ":335v"
"WLSEL<208>v" ":336v"
"WLSEL<207>v" ":337v"
"WLSEL<206>v" ":338v"
"WLSEL<205>v" ":339v"
"WLSEL<204>v" ":340v"
"WLSEL<203>v" ":341v"
"WLSEL<202>v" ":342v"
"WLSEL<201>v" ":343v"
"WLSEL<200>v" ":344v"
"WLSEL<199>v" ":345v"
"WLSEL<198>v" ":346v"
"WLSEL<197>v" ":347v"
"WLSEL<196>v" ":348v"
"WLSEL<195>v" ":349v"
"WLSEL<194>v" ":350v"
"WLSEL<193>v" ":351v"
"WLSEL<192>v" ":352v"
"WLSEL<191>v" ":353v"
"WLSEL<190>v" ":354v"
"WLSEL<189>v" ":355v"
"WLSEL<188>v" ":356v"
"WLSEL<187>v" ":357v"
"WLSEL<186>v" ":358v"
"WLSEL<185>v" ":359v"
"WLSEL<184>v" ":360v"
"WLSEL<183>v" ":361v"
"WLSEL<182>v" ":362v"
"WLSEL<181>v" ":363v"
"WLSEL<180>v" ":364v"
"WLSEL<179>v" ":365v"
"WLSEL<178>v" ":366v"
"WLSEL<177>v" ":367v"
"WLSEL<176>v" ":368v"
"WLSEL<175>v" ":369v"
"WLSEL<174>v" ":370v"
"WLSEL<173>v" ":371v"
"WLSEL<172>v" ":372v"
"WLSEL<171>v" ":373v"
"WLSEL<170>v" ":374v"
"WLSEL<169>v" ":375v"
"WLSEL<168>v" ":376v"
"WLSEL<167>v" ":377v"
"WLSEL<166>v" ":378v"
"WLSEL<165>v" ":379v"
"WLSEL<164>v" ":380v"
"WLSEL<163>v" ":381v"
"WLSEL<162>v" ":382v"
"WLSEL<161>v" ":383v"
"WLSEL<160>v" ":384v"
"WLSEL<159>v" ":385v"
"WLSEL<158>v" ":386v"
"WLSEL<157>v" ":387v"
"WLSEL<156>v" ":388v"
"WLSEL<155>v" ":389v"
"WLSEL<154>v" ":390v"
"WLSEL<153>v" ":391v"
"WLSEL<152>v" ":392v"
"WLSEL<151>v" ":393v"
"WLSEL<150>v" ":394v"
"WLSEL<149>v" ":395v"
"WLSEL<148>v" ":396v"
"WLSEL<147>v" ":397v"
"WLSEL<146>v" ":398v"
"WLSEL<145>v" ":399v"
"WLSEL<144>v" ":400v"
"WLSEL<143>v" ":401v"
"WLSEL<142>v" ":402v"
"WLSEL<141>v" ":403v"
"WLSEL<140>v" ":404v"
"WLSEL<139>v" ":405v"
"WLSEL<138>v" ":406v"
"WLSEL<137>v" ":407v"
"WLSEL<136>v" ":408v"
"WLSEL<135>v" ":409v"
"WLSEL<134>v" ":410v"
"WLSEL<133>v" ":411v"
"WLSEL<132>v" ":412v"
"WLSEL<131>v" ":413v"
"WLSEL<130>v" ":414v"
"WLSEL<129>v" ":415v"
"WLSEL<128>v" ":416v"
"WLSEL<127>v" ":417v"
"WLSEL<126>v" ":418v"
"WLSEL<125>v" ":419v"
"WLSEL<124>v" ":420v"
"WLSEL<123>v" ":421v"
"WLSEL<122>v" ":422v"
"WLSEL<121>v" ":423v"
"WLSEL<120>v" ":424v"
"WLSEL<119>v" ":425v"
"WLSEL<118>v" ":426v"
"WLSEL<117>v" ":427v"
"WLSEL<116>v" ":428v"
"WLSEL<115>v" ":429v"
"WLSEL<114>v" ":430v"
"WLSEL<113>v" ":431v"
"WLSEL<112>v" ":432v"
"WLSEL<111>v" ":433v"
"WLSEL<110>v" ":434v"
"WLSEL<109>v" ":435v"
"WLSEL<108>v" ":436v"
"WLSEL<107>v" ":437v"
"WLSEL<106>v" ":438v"
"WLSEL<105>v" ":439v"
"WLSEL<104>v" ":440v"
"WLSEL<103>v" ":441v"
"WLSEL<102>v" ":442v"
"WLSEL<101>v" ":443v"
"WLSEL<100>v" ":444v"
"WLSEL<99>v" ":445v"
"WLSEL<98>v" ":446v"
"WLSEL<97>v" ":447v"
"WLSEL<96>v" ":448v"
"WLSEL<95>v" ":449v"
"WLSEL<94>v" ":450v"
"WLSEL<93>v" ":451v"
"WLSEL<92>v" ":452v"
"WLSEL<91>v" ":453v"
"WLSEL<90>v" ":454v"
"WLSEL<89>v" ":455v"
"WLSEL<88>v" ":456v"
"WLSEL<87>v" ":457v"
"WLSEL<86>v" ":458v"
"WLSEL<85>v" ":459v"
"WLSEL<84>v" ":460v"
"WLSEL<83>v" ":461v"
"WLSEL<82>v" ":462v"
"WLSEL<81>v" ":463v"
"WLSEL<80>v" ":464v"
"WLSEL<79>v" ":465v"
"WLSEL<78>v" ":466v"
"WLSEL<77>v" ":467v"
"WLSEL<76>v" ":468v"
"WLSEL<75>v" ":469v"
"WLSEL<74>v" ":470v"
"WLSEL<73>v" ":471v"
"WLSEL<72>v" ":472v"
"WLSEL<71>v" ":473v"
"WLSEL<70>v" ":474v"
"WLSEL<69>v" ":475v"
"WLSEL<68>v" ":476v"
"WLSEL<67>v" ":477v"
"WLSEL<66>v" ":478v"
"WLSEL<65>v" ":479v"
"WLSEL<64>v" ":480v"
"WLSEL<63>v" ":481v"
"WLSEL<62>v" ":482v"
"WLSEL<61>v" ":483v"
"WLSEL<60>v" ":484v"
"WLSEL<59>v" ":485v"
"WLSEL<58>v" ":486v"
"WLSEL<57>v" ":487v"
"WLSEL<56>v" ":488v"
"WLSEL<55>v" ":489v"
"WLSEL<54>v" ":490v"
"WLSEL<53>v" ":491v"
"WLSEL<52>v" ":492v"
"WLSEL<51>v" ":493v"
"WLSEL<50>v" ":494v"
"WLSEL<49>v" ":495v"
"WLSEL<48>v" ":496v"
"WLSEL<47>v" ":497v"
"WLSEL<46>v" ":498v"
"WLSEL<45>v" ":499v"
"WLSEL<44>v" ":500v"
"WLSEL<43>v" ":501v"
"WLSEL<42>v" ":502v"
"WLSEL<41>v" ":503v"
"WLSEL<40>v" ":504v"
"WLSEL<39>v" ":505v"
"WLSEL<38>v" ":506v"
"WLSEL<37>v" ":507v"
"WLSEL<36>v" ":508v"
"WLSEL<35>v" ":509v"
"WLSEL<34>v" ":510v"
"WLSEL<33>v" ":511v"
"WLSEL<32>v" ":512v"
"WLSEL<31>v" ":513v"
"WLSEL<30>v" ":514v"
"WLSEL<29>v" ":515v"
"WLSEL<28>v" ":516v"
"WLSEL<27>v" ":517v"
"WLSEL<26>v" ":518v"
"WLSEL<25>v" ":519v"
"WLSEL<24>v" ":520v"
"WLSEL<23>v" ":521v"
"WLSEL<22>v" ":522v"
"WLSEL<21>v" ":523v"
"WLSEL<20>v" ":524v"
"WLSEL<19>v" ":525v"
"WLSEL<18>v" ":526v"
"WLSEL<17>v" ":527v"
"WLSEL<16>v" ":528v"
"WLSEL<15>v" ":529v"
"WLSEL<14>v" ":530v"
"WLSEL<13>v" ":531v"
"WLSEL<12>v" ":532v"
"WLSEL<11>v" ":533v"
"WLSEL<10>v" ":534v"
"WLSEL<9>v" ":535v"
"WLSEL<8>v" ":536v"
"WLSEL<7>v" ":537v"
"WLSEL<6>v" ":538v"
"WLSEL<5>v" ":539v"
"WLSEL<4>v" ":540v"
"WLSEL<3>v" ":541v"
"WLSEL<2>v" ":542v"
"WLSEL<1>v" ":543v"
"WLSEL<0>v" ":544v"
