HEADER
"PSFversion" "1.00"
"Rwire1<15>n Rwire1<14>n Rwire1<13>n Rwire1<12>n Rwire1<11>n Rwire1<10>n Rwire1<9>n Rwire1<8>n Rwire1<7>n Rwire1<6>n Rwire1<5>n Rwire1<4>n Rwire1<3>n Rwire1<2>n Rwire1<1>n Rwire1<0>n Rwire0<15>n Rwire0<14>n Rwire0<13>n Rwire0<12>n Rwire0<11>n Rwire0<10>n Rwire0<9>n Rwire0<8>n Rwire0<7>n Rwire0<6>n Rwire0<5>n Rwire0<4>n Rwire0<3>n Rwire0<2>n Rwire0<1>n Rwire0<0>n" "analogLib_res_spectre"
"Cwire0<15>n Cwire0<14>n Cwire0<13>n Cwire0<12>n Cwire0<11>n Cwire0<10>n Cwire0<9>n Cwire0<8>n Cwire0<7>n Cwire0<6>n Cwire0<5>n Cwire0<4>n Cwire0<3>n Cwire0<2>n Cwire0<1>n Cwire0<0>n Cwire1<15>n Cwire1<14>n Cwire1<13>n Cwire1<12>n Cwire1<11>n Cwire1<10>n Cwire1<9>n Cwire1<8>n Cwire1<7>n Cwire1<6>n Cwire1<5>n Cwire1<4>n Cwire1<3>n Cwire1<2>n Cwire1<1>n Cwire1<0>n" "analogLib_cap_spectre"
"I2<15>n I2<14>n I2<13>n I2<12>n I2<11>n I2<10>n I2<9>n I2<8>n I2<7>n I2<6>n I2<5>n I2<4>n I2<3>n I2<2>n I2<1>n I2<0>n" "Post_L1_16t2"
"Sel0<15>v" ":1v"
"Sel0<14>v" ":2v"
"Sel0<13>v" ":3v"
"Sel0<12>v" ":4v"
"Sel0<11>v" ":5v"
"Sel0<10>v" ":6v"
"Sel0<9>v" ":7v"
"Sel0<8>v" ":8v"
"Sel0<7>v" ":9v"
"Sel0<6>v" ":10v"
"Sel0<5>v" ":11v"
"Sel0<4>v" ":12v"
"Sel0<3>v" ":13v"
"Sel0<2>v" ":14v"
"Sel0<1>v" ":15v"
"Sel0<0>v" ":16v"
"Sel1<15>v" ":17v"
"Sel1<14>v" ":18v"
"Sel1<13>v" ":19v"
"Sel1<12>v" ":20v"
"Sel1<11>v" ":21v"
"Sel1<10>v" ":22v"
"Sel1<9>v" ":23v"
"Sel1<8>v" ":24v"
"Sel1<7>v" ":25v"
"Sel1<6>v" ":26v"
"Sel1<5>v" ":27v"
"Sel1<4>v" ":28v"
"Sel1<3>v" ":29v"
"Sel1<2>v" ":30v"
"Sel1<1>v" ":31v"
"Sel1<0>v" ":32v"
"WLSel<511>v" ":33v"
"WLSel<510>v" ":34v"
"WLSel<509>v" ":35v"
"WLSel<508>v" ":36v"
"WLSel<507>v" ":37v"
"WLSel<506>v" ":38v"
"WLSel<505>v" ":39v"
"WLSel<504>v" ":40v"
"WLSel<503>v" ":41v"
"WLSel<502>v" ":42v"
"WLSel<501>v" ":43v"
"WLSel<500>v" ":44v"
"WLSel<499>v" ":45v"
"WLSel<498>v" ":46v"
"WLSel<497>v" ":47v"
"WLSel<496>v" ":48v"
"WLSel<495>v" ":49v"
"WLSel<494>v" ":50v"
"WLSel<493>v" ":51v"
"WLSel<492>v" ":52v"
"WLSel<491>v" ":53v"
"WLSel<490>v" ":54v"
"WLSel<489>v" ":55v"
"WLSel<488>v" ":56v"
"WLSel<487>v" ":57v"
"WLSel<486>v" ":58v"
"WLSel<485>v" ":59v"
"WLSel<484>v" ":60v"
"WLSel<483>v" ":61v"
"WLSel<482>v" ":62v"
"WLSel<481>v" ":63v"
"WLSel<480>v" ":64v"
"WLSel<479>v" ":65v"
"WLSel<478>v" ":66v"
"WLSel<477>v" ":67v"
"WLSel<476>v" ":68v"
"WLSel<475>v" ":69v"
"WLSel<474>v" ":70v"
"WLSel<473>v" ":71v"
"WLSel<472>v" ":72v"
"WLSel<471>v" ":73v"
"WLSel<470>v" ":74v"
"WLSel<469>v" ":75v"
"WLSel<468>v" ":76v"
"WLSel<467>v" ":77v"
"WLSel<466>v" ":78v"
"WLSel<465>v" ":79v"
"WLSel<464>v" ":80v"
"WLSel<463>v" ":81v"
"WLSel<462>v" ":82v"
"WLSel<461>v" ":83v"
"WLSel<460>v" ":84v"
"WLSel<459>v" ":85v"
"WLSel<458>v" ":86v"
"WLSel<457>v" ":87v"
"WLSel<456>v" ":88v"
"WLSel<455>v" ":89v"
"WLSel<454>v" ":90v"
"WLSel<453>v" ":91v"
"WLSel<452>v" ":92v"
"WLSel<451>v" ":93v"
"WLSel<450>v" ":94v"
"WLSel<449>v" ":95v"
"WLSel<448>v" ":96v"
"WLSel<447>v" ":97v"
"WLSel<446>v" ":98v"
"WLSel<445>v" ":99v"
"WLSel<444>v" ":100v"
"WLSel<443>v" ":101v"
"WLSel<442>v" ":102v"
"WLSel<441>v" ":103v"
"WLSel<440>v" ":104v"
"WLSel<439>v" ":105v"
"WLSel<438>v" ":106v"
"WLSel<437>v" ":107v"
"WLSel<436>v" ":108v"
"WLSel<435>v" ":109v"
"WLSel<434>v" ":110v"
"WLSel<433>v" ":111v"
"WLSel<432>v" ":112v"
"WLSel<431>v" ":113v"
"WLSel<430>v" ":114v"
"WLSel<429>v" ":115v"
"WLSel<428>v" ":116v"
"WLSel<427>v" ":117v"
"WLSel<426>v" ":118v"
"WLSel<425>v" ":119v"
"WLSel<424>v" ":120v"
"WLSel<423>v" ":121v"
"WLSel<422>v" ":122v"
"WLSel<421>v" ":123v"
"WLSel<420>v" ":124v"
"WLSel<419>v" ":125v"
"WLSel<418>v" ":126v"
"WLSel<417>v" ":127v"
"WLSel<416>v" ":128v"
"WLSel<415>v" ":129v"
"WLSel<414>v" ":130v"
"WLSel<413>v" ":131v"
"WLSel<412>v" ":132v"
"WLSel<411>v" ":133v"
"WLSel<410>v" ":134v"
"WLSel<409>v" ":135v"
"WLSel<408>v" ":136v"
"WLSel<407>v" ":137v"
"WLSel<406>v" ":138v"
"WLSel<405>v" ":139v"
"WLSel<404>v" ":140v"
"WLSel<403>v" ":141v"
"WLSel<402>v" ":142v"
"WLSel<401>v" ":143v"
"WLSel<400>v" ":144v"
"WLSel<399>v" ":145v"
"WLSel<398>v" ":146v"
"WLSel<397>v" ":147v"
"WLSel<396>v" ":148v"
"WLSel<395>v" ":149v"
"WLSel<394>v" ":150v"
"WLSel<393>v" ":151v"
"WLSel<392>v" ":152v"
"WLSel<391>v" ":153v"
"WLSel<390>v" ":154v"
"WLSel<389>v" ":155v"
"WLSel<388>v" ":156v"
"WLSel<387>v" ":157v"
"WLSel<386>v" ":158v"
"WLSel<385>v" ":159v"
"WLSel<384>v" ":160v"
"WLSel<383>v" ":161v"
"WLSel<382>v" ":162v"
"WLSel<381>v" ":163v"
"WLSel<380>v" ":164v"
"WLSel<379>v" ":165v"
"WLSel<378>v" ":166v"
"WLSel<377>v" ":167v"
"WLSel<376>v" ":168v"
"WLSel<375>v" ":169v"
"WLSel<374>v" ":170v"
"WLSel<373>v" ":171v"
"WLSel<372>v" ":172v"
"WLSel<371>v" ":173v"
"WLSel<370>v" ":174v"
"WLSel<369>v" ":175v"
"WLSel<368>v" ":176v"
"WLSel<367>v" ":177v"
"WLSel<366>v" ":178v"
"WLSel<365>v" ":179v"
"WLSel<364>v" ":180v"
"WLSel<363>v" ":181v"
"WLSel<362>v" ":182v"
"WLSel<361>v" ":183v"
"WLSel<360>v" ":184v"
"WLSel<359>v" ":185v"
"WLSel<358>v" ":186v"
"WLSel<357>v" ":187v"
"WLSel<356>v" ":188v"
"WLSel<355>v" ":189v"
"WLSel<354>v" ":190v"
"WLSel<353>v" ":191v"
"WLSel<352>v" ":192v"
"WLSel<351>v" ":193v"
"WLSel<350>v" ":194v"
"WLSel<349>v" ":195v"
"WLSel<348>v" ":196v"
"WLSel<347>v" ":197v"
"WLSel<346>v" ":198v"
"WLSel<345>v" ":199v"
"WLSel<344>v" ":200v"
"WLSel<343>v" ":201v"
"WLSel<342>v" ":202v"
"WLSel<341>v" ":203v"
"WLSel<340>v" ":204v"
"WLSel<339>v" ":205v"
"WLSel<338>v" ":206v"
"WLSel<337>v" ":207v"
"WLSel<336>v" ":208v"
"WLSel<335>v" ":209v"
"WLSel<334>v" ":210v"
"WLSel<333>v" ":211v"
"WLSel<332>v" ":212v"
"WLSel<331>v" ":213v"
"WLSel<330>v" ":214v"
"WLSel<329>v" ":215v"
"WLSel<328>v" ":216v"
"WLSel<327>v" ":217v"
"WLSel<326>v" ":218v"
"WLSel<325>v" ":219v"
"WLSel<324>v" ":220v"
"WLSel<323>v" ":221v"
"WLSel<322>v" ":222v"
"WLSel<321>v" ":223v"
"WLSel<320>v" ":224v"
"WLSel<319>v" ":225v"
"WLSel<318>v" ":226v"
"WLSel<317>v" ":227v"
"WLSel<316>v" ":228v"
"WLSel<315>v" ":229v"
"WLSel<314>v" ":230v"
"WLSel<313>v" ":231v"
"WLSel<312>v" ":232v"
"WLSel<311>v" ":233v"
"WLSel<310>v" ":234v"
"WLSel<309>v" ":235v"
"WLSel<308>v" ":236v"
"WLSel<307>v" ":237v"
"WLSel<306>v" ":238v"
"WLSel<305>v" ":239v"
"WLSel<304>v" ":240v"
"WLSel<303>v" ":241v"
"WLSel<302>v" ":242v"
"WLSel<301>v" ":243v"
"WLSel<300>v" ":244v"
"WLSel<299>v" ":245v"
"WLSel<298>v" ":246v"
"WLSel<297>v" ":247v"
"WLSel<296>v" ":248v"
"WLSel<295>v" ":249v"
"WLSel<294>v" ":250v"
"WLSel<293>v" ":251v"
"WLSel<292>v" ":252v"
"WLSel<291>v" ":253v"
"WLSel<290>v" ":254v"
"WLSel<289>v" ":255v"
"WLSel<288>v" ":256v"
"WLSel<287>v" ":257v"
"WLSel<286>v" ":258v"
"WLSel<285>v" ":259v"
"WLSel<284>v" ":260v"
"WLSel<283>v" ":261v"
"WLSel<282>v" ":262v"
"WLSel<281>v" ":263v"
"WLSel<280>v" ":264v"
"WLSel<279>v" ":265v"
"WLSel<278>v" ":266v"
"WLSel<277>v" ":267v"
"WLSel<276>v" ":268v"
"WLSel<275>v" ":269v"
"WLSel<274>v" ":270v"
"WLSel<273>v" ":271v"
"WLSel<272>v" ":272v"
"WLSel<271>v" ":273v"
"WLSel<270>v" ":274v"
"WLSel<269>v" ":275v"
"WLSel<268>v" ":276v"
"WLSel<267>v" ":277v"
"WLSel<266>v" ":278v"
"WLSel<265>v" ":279v"
"WLSel<264>v" ":280v"
"WLSel<263>v" ":281v"
"WLSel<262>v" ":282v"
"WLSel<261>v" ":283v"
"WLSel<260>v" ":284v"
"WLSel<259>v" ":285v"
"WLSel<258>v" ":286v"
"WLSel<257>v" ":287v"
"WLSel<256>v" ":288v"
"WLSel<255>v" ":289v"
"WLSel<254>v" ":290v"
"WLSel<253>v" ":291v"
"WLSel<252>v" ":292v"
"WLSel<251>v" ":293v"
"WLSel<250>v" ":294v"
"WLSel<249>v" ":295v"
"WLSel<248>v" ":296v"
"WLSel<247>v" ":297v"
"WLSel<246>v" ":298v"
"WLSel<245>v" ":299v"
"WLSel<244>v" ":300v"
"WLSel<243>v" ":301v"
"WLSel<242>v" ":302v"
"WLSel<241>v" ":303v"
"WLSel<240>v" ":304v"
"WLSel<239>v" ":305v"
"WLSel<238>v" ":306v"
"WLSel<237>v" ":307v"
"WLSel<236>v" ":308v"
"WLSel<235>v" ":309v"
"WLSel<234>v" ":310v"
"WLSel<233>v" ":311v"
"WLSel<232>v" ":312v"
"WLSel<231>v" ":313v"
"WLSel<230>v" ":314v"
"WLSel<229>v" ":315v"
"WLSel<228>v" ":316v"
"WLSel<227>v" ":317v"
"WLSel<226>v" ":318v"
"WLSel<225>v" ":319v"
"WLSel<224>v" ":320v"
"WLSel<223>v" ":321v"
"WLSel<222>v" ":322v"
"WLSel<221>v" ":323v"
"WLSel<220>v" ":324v"
"WLSel<219>v" ":325v"
"WLSel<218>v" ":326v"
"WLSel<217>v" ":327v"
"WLSel<216>v" ":328v"
"WLSel<215>v" ":329v"
"WLSel<214>v" ":330v"
"WLSel<213>v" ":331v"
"WLSel<212>v" ":332v"
"WLSel<211>v" ":333v"
"WLSel<210>v" ":334v"
"WLSel<209>v" ":335v"
"WLSel<208>v" ":336v"
"WLSel<207>v" ":337v"
"WLSel<206>v" ":338v"
"WLSel<205>v" ":339v"
"WLSel<204>v" ":340v"
"WLSel<203>v" ":341v"
"WLSel<202>v" ":342v"
"WLSel<201>v" ":343v"
"WLSel<200>v" ":344v"
"WLSel<199>v" ":345v"
"WLSel<198>v" ":346v"
"WLSel<197>v" ":347v"
"WLSel<196>v" ":348v"
"WLSel<195>v" ":349v"
"WLSel<194>v" ":350v"
"WLSel<193>v" ":351v"
"WLSel<192>v" ":352v"
"WLSel<191>v" ":353v"
"WLSel<190>v" ":354v"
"WLSel<189>v" ":355v"
"WLSel<188>v" ":356v"
"WLSel<187>v" ":357v"
"WLSel<186>v" ":358v"
"WLSel<185>v" ":359v"
"WLSel<184>v" ":360v"
"WLSel<183>v" ":361v"
"WLSel<182>v" ":362v"
"WLSel<181>v" ":363v"
"WLSel<180>v" ":364v"
"WLSel<179>v" ":365v"
"WLSel<178>v" ":366v"
"WLSel<177>v" ":367v"
"WLSel<176>v" ":368v"
"WLSel<175>v" ":369v"
"WLSel<174>v" ":370v"
"WLSel<173>v" ":371v"
"WLSel<172>v" ":372v"
"WLSel<171>v" ":373v"
"WLSel<170>v" ":374v"
"WLSel<169>v" ":375v"
"WLSel<168>v" ":376v"
"WLSel<167>v" ":377v"
"WLSel<166>v" ":378v"
"WLSel<165>v" ":379v"
"WLSel<164>v" ":380v"
"WLSel<163>v" ":381v"
"WLSel<162>v" ":382v"
"WLSel<161>v" ":383v"
"WLSel<160>v" ":384v"
"WLSel<159>v" ":385v"
"WLSel<158>v" ":386v"
"WLSel<157>v" ":387v"
"WLSel<156>v" ":388v"
"WLSel<155>v" ":389v"
"WLSel<154>v" ":390v"
"WLSel<153>v" ":391v"
"WLSel<152>v" ":392v"
"WLSel<151>v" ":393v"
"WLSel<150>v" ":394v"
"WLSel<149>v" ":395v"
"WLSel<148>v" ":396v"
"WLSel<147>v" ":397v"
"WLSel<146>v" ":398v"
"WLSel<145>v" ":399v"
"WLSel<144>v" ":400v"
"WLSel<143>v" ":401v"
"WLSel<142>v" ":402v"
"WLSel<141>v" ":403v"
"WLSel<140>v" ":404v"
"WLSel<139>v" ":405v"
"WLSel<138>v" ":406v"
"WLSel<137>v" ":407v"
"WLSel<136>v" ":408v"
"WLSel<135>v" ":409v"
"WLSel<134>v" ":410v"
"WLSel<133>v" ":411v"
"WLSel<132>v" ":412v"
"WLSel<131>v" ":413v"
"WLSel<130>v" ":414v"
"WLSel<129>v" ":415v"
"WLSel<128>v" ":416v"
"WLSel<127>v" ":417v"
"WLSel<126>v" ":418v"
"WLSel<125>v" ":419v"
"WLSel<124>v" ":420v"
"WLSel<123>v" ":421v"
"WLSel<122>v" ":422v"
"WLSel<121>v" ":423v"
"WLSel<120>v" ":424v"
"WLSel<119>v" ":425v"
"WLSel<118>v" ":426v"
"WLSel<117>v" ":427v"
"WLSel<116>v" ":428v"
"WLSel<115>v" ":429v"
"WLSel<114>v" ":430v"
"WLSel<113>v" ":431v"
"WLSel<112>v" ":432v"
"WLSel<111>v" ":433v"
"WLSel<110>v" ":434v"
"WLSel<109>v" ":435v"
"WLSel<108>v" ":436v"
"WLSel<107>v" ":437v"
"WLSel<106>v" ":438v"
"WLSel<105>v" ":439v"
"WLSel<104>v" ":440v"
"WLSel<103>v" ":441v"
"WLSel<102>v" ":442v"
"WLSel<101>v" ":443v"
"WLSel<100>v" ":444v"
"WLSel<99>v" ":445v"
"WLSel<98>v" ":446v"
"WLSel<97>v" ":447v"
"WLSel<96>v" ":448v"
"WLSel<95>v" ":449v"
"WLSel<94>v" ":450v"
"WLSel<93>v" ":451v"
"WLSel<92>v" ":452v"
"WLSel<91>v" ":453v"
"WLSel<90>v" ":454v"
"WLSel<89>v" ":455v"
"WLSel<88>v" ":456v"
"WLSel<87>v" ":457v"
"WLSel<86>v" ":458v"
"WLSel<85>v" ":459v"
"WLSel<84>v" ":460v"
"WLSel<83>v" ":461v"
"WLSel<82>v" ":462v"
"WLSel<81>v" ":463v"
"WLSel<80>v" ":464v"
"WLSel<79>v" ":465v"
"WLSel<78>v" ":466v"
"WLSel<77>v" ":467v"
"WLSel<76>v" ":468v"
"WLSel<75>v" ":469v"
"WLSel<74>v" ":470v"
"WLSel<73>v" ":471v"
"WLSel<72>v" ":472v"
"WLSel<71>v" ":473v"
"WLSel<70>v" ":474v"
"WLSel<69>v" ":475v"
"WLSel<68>v" ":476v"
"WLSel<67>v" ":477v"
"WLSel<66>v" ":478v"
"WLSel<65>v" ":479v"
"WLSel<64>v" ":480v"
"WLSel<63>v" ":481v"
"WLSel<62>v" ":482v"
"WLSel<61>v" ":483v"
"WLSel<60>v" ":484v"
"WLSel<59>v" ":485v"
"WLSel<58>v" ":486v"
"WLSel<57>v" ":487v"
"WLSel<56>v" ":488v"
"WLSel<55>v" ":489v"
"WLSel<54>v" ":490v"
"WLSel<53>v" ":491v"
"WLSel<52>v" ":492v"
"WLSel<51>v" ":493v"
"WLSel<50>v" ":494v"
"WLSel<49>v" ":495v"
"WLSel<48>v" ":496v"
"WLSel<47>v" ":497v"
"WLSel<46>v" ":498v"
"WLSel<45>v" ":499v"
"WLSel<44>v" ":500v"
"WLSel<43>v" ":501v"
"WLSel<42>v" ":502v"
"WLSel<41>v" ":503v"
"WLSel<40>v" ":504v"
"WLSel<39>v" ":505v"
"WLSel<38>v" ":506v"
"WLSel<37>v" ":507v"
"WLSel<36>v" ":508v"
"WLSel<35>v" ":509v"
"WLSel<34>v" ":510v"
"WLSel<33>v" ":511v"
"WLSel<32>v" ":512v"
"WLSel<31>v" ":513v"
"WLSel<30>v" ":514v"
"WLSel<29>v" ":515v"
"WLSel<28>v" ":516v"
"WLSel<27>v" ":517v"
"WLSel<26>v" ":518v"
"WLSel<25>v" ":519v"
"WLSel<24>v" ":520v"
"WLSel<23>v" ":521v"
"WLSel<22>v" ":522v"
"WLSel<21>v" ":523v"
"WLSel<20>v" ":524v"
"WLSel<19>v" ":525v"
"WLSel<18>v" ":526v"
"WLSel<17>v" ":527v"
"WLSel<16>v" ":528v"
"WLSel<15>v" ":529v"
"WLSel<14>v" ":530v"
"WLSel<13>v" ":531v"
"WLSel<12>v" ":532v"
"WLSel<11>v" ":533v"
"WLSel<10>v" ":534v"
"WLSel<9>v" ":535v"
"WLSel<8>v" ":536v"
"WLSel<7>v" ":537v"
"WLSel<6>v" ":538v"
"WLSel<5>v" ":539v"
"WLSel<4>v" ":540v"
"WLSel<3>v" ":541v"
"WLSel<2>v" ":542v"
"WLSel<1>v" ":543v"
"WLSel<0>v" ":544v"
