HEADER
"PSFversion" "1.00"
"I1<7>n I1<6>n I1<5>n I1<4>n I1<3>n I1<2>n I1<1>n I1<0>n" "basic_cds_thru_spectre"
"A<3>v" ":1v"
"A<2>v" ":2v"
"A<1>v" ":3v"
"ADDR<0>v" ":4v"
"ADDRb<0>v" ":5v"
"AOut<7>v" ":6v"
"AOut<6>v" ":7v"
"AOut<5>v" ":8v"
"AOut<4>v" ":9v"
"AOut<3>v" ":10v"
"AOut<2>v" ":11v"
"AOut<1>v" ":12v"
"AOut<0>v" ":13v"
