HEADER
"PSFversion" "1.00"
"I3n I2n" "Pre_L1_2t4"
"A<3>v" ":1v"
"ADDR<2>v" ":2v"
"ADDR<1>v" ":3v"
"ADDR<0>v" ":4v"
"ADDRb<2>v" ":5v"
"ADDRb<1>v" ":6v"
"ADDRb<0>v" ":7v"
"AOut<31>v" ":8v"
"AOut<30>v" ":9v"
"AOut<29>v" ":10v"
"AOut<28>v" ":11v"
"AOut<27>v" ":12v"
"AOut<26>v" ":13v"
"AOut<25>v" ":14v"
"AOut<24>v" ":15v"
"AOut<23>v" ":16v"
"AOut<22>v" ":17v"
"AOut<21>v" ":18v"
"AOut<20>v" ":19v"
"AOut<19>v" ":20v"
"AOut<18>v" ":21v"
"AOut<17>v" ":22v"
"AOut<16>v" ":23v"
"AOut<15>v" ":24v"
"AOut<14>v" ":25v"
"AOut<13>v" ":26v"
"AOut<12>v" ":27v"
"AOut<11>v" ":28v"
"AOut<10>v" ":29v"
"AOut<9>v" ":30v"
"AOut<8>v" ":31v"
"AOut<7>v" ":32v"
"AOut<6>v" ":33v"
"AOut<5>v" ":34v"
"AOut<4>v" ":35v"
"AOut<3>v" ":36v"
"AOut<2>v" ":37v"
"AOut<1>v" ":38v"
"AOut<0>v" ":39v"
