HEADER
"PSFversion" "1.00"
"I1n I0n" "Pre_L2_3t8"
"ADDR<3>v" ":1v"
"ADDR<2>v" ":2v"
"ADDR<1>v" ":3v"
"ADDR<0>v" ":4v"
"ADDRb<3>v" ":5v"
"ADDRb<2>v" ":6v"
"ADDRb<1>v" ":7v"
"ADDRb<0>v" ":8v"
"AOut<63>v" ":9v"
"AOut<62>v" ":10v"
"AOut<61>v" ":11v"
"AOut<60>v" ":12v"
"AOut<59>v" ":13v"
"AOut<58>v" ":14v"
"AOut<57>v" ":15v"
"AOut<56>v" ":16v"
"AOut<55>v" ":17v"
"AOut<54>v" ":18v"
"AOut<53>v" ":19v"
"AOut<52>v" ":20v"
"AOut<51>v" ":21v"
"AOut<50>v" ":22v"
"AOut<49>v" ":23v"
"AOut<48>v" ":24v"
"AOut<47>v" ":25v"
"AOut<46>v" ":26v"
"AOut<45>v" ":27v"
"AOut<44>v" ":28v"
"AOut<43>v" ":29v"
"AOut<42>v" ":30v"
"AOut<41>v" ":31v"
"AOut<40>v" ":32v"
"AOut<39>v" ":33v"
"AOut<38>v" ":34v"
"AOut<37>v" ":35v"
"AOut<36>v" ":36v"
"AOut<35>v" ":37v"
"AOut<34>v" ":38v"
"AOut<33>v" ":39v"
"AOut<32>v" ":40v"
"AOut<31>v" ":41v"
"AOut<30>v" ":42v"
"AOut<29>v" ":43v"
"AOut<28>v" ":44v"
"AOut<27>v" ":45v"
"AOut<26>v" ":46v"
"AOut<25>v" ":47v"
"AOut<24>v" ":48v"
"AOut<23>v" ":49v"
"AOut<22>v" ":50v"
"AOut<21>v" ":51v"
"AOut<20>v" ":52v"
"AOut<19>v" ":53v"
"AOut<18>v" ":54v"
"AOut<17>v" ":55v"
"AOut<16>v" ":56v"
"AOut<15>v" ":57v"
"AOut<14>v" ":58v"
"AOut<13>v" ":59v"
"AOut<12>v" ":60v"
"AOut<11>v" ":61v"
"AOut<10>v" ":62v"
"AOut<9>v" ":63v"
"AOut<8>v" ":64v"
"AOut<7>v" ":65v"
"AOut<6>v" ":66v"
"AOut<5>v" ":67v"
"AOut<4>v" ":68v"
"AOut<3>v" ":69v"
"AOut<2>v" ":70v"
"AOut<1>v" ":71v"
"AOut<0>v" ":72v"
