HEADER
"PSFversion" "1.00"
"WL<0>v" ":WL\\[0\\]v"
"WL<1>v" ":WL\\[1\\]v"
"WL<2>v" ":WL\\[2\\]v"
"WL<3>v" ":WL\\[3\\]v"
"WL<4>v" ":WL\\[4\\]v"
"WL<5>v" ":WL\\[5\\]v"
"WL<6>v" ":WL\\[6\\]v"
"WL<7>v" ":WL\\[7\\]v"
"WL<8>v" ":WL\\[8\\]v"
"WL<9>v" ":WL\\[9\\]v"
"WL<10>v" ":WL\\[10\\]v"
"WL<11>v" ":WL\\[11\\]v"
"WL<12>v" ":WL\\[12\\]v"
"WL<13>v" ":WL\\[13\\]v"
"WL<14>v" ":WL\\[14\\]v"
"WL<15>v" ":WL\\[15\\]v"
"WL<16>v" ":WL\\[16\\]v"
"WL<17>v" ":WL\\[17\\]v"
"WL<18>v" ":WL\\[18\\]v"
"WL<19>v" ":WL\\[19\\]v"
"WL<20>v" ":WL\\[20\\]v"
"WL<21>v" ":WL\\[21\\]v"
"WL<22>v" ":WL\\[22\\]v"
"WL<23>v" ":WL\\[23\\]v"
"WL<24>v" ":WL\\[24\\]v"
"WL<25>v" ":WL\\[25\\]v"
"WL<26>v" ":WL\\[26\\]v"
"WL<27>v" ":WL\\[27\\]v"
"WL<28>v" ":WL\\[28\\]v"
"WL<29>v" ":WL\\[29\\]v"
"WL<30>v" ":WL\\[30\\]v"
"WL<31>v" ":WL\\[31\\]v"
"WL<32>v" ":WL\\[32\\]v"
"WL<33>v" ":WL\\[33\\]v"
"WL<34>v" ":WL\\[34\\]v"
"WL<35>v" ":WL\\[35\\]v"
"WL<36>v" ":WL\\[36\\]v"
"WL<37>v" ":WL\\[37\\]v"
"WL<38>v" ":WL\\[38\\]v"
"WL<39>v" ":WL\\[39\\]v"
"WL<40>v" ":WL\\[40\\]v"
"WL<41>v" ":WL\\[41\\]v"
"WL<42>v" ":WL\\[42\\]v"
"WL<43>v" ":WL\\[43\\]v"
"WL<44>v" ":WL\\[44\\]v"
"WL<45>v" ":WL\\[45\\]v"
"WL<46>v" ":WL\\[46\\]v"
"WL<47>v" ":WL\\[47\\]v"
"WL<48>v" ":WL\\[48\\]v"
"WL<49>v" ":WL\\[49\\]v"
"WL<50>v" ":WL\\[50\\]v"
"WL<51>v" ":WL\\[51\\]v"
"WL<52>v" ":WL\\[52\\]v"
"WL<53>v" ":WL\\[53\\]v"
"WL<54>v" ":WL\\[54\\]v"
"WL<55>v" ":WL\\[55\\]v"
"WL<56>v" ":WL\\[56\\]v"
"WL<57>v" ":WL\\[57\\]v"
"WL<58>v" ":WL\\[58\\]v"
"WL<59>v" ":WL\\[59\\]v"
"WL<60>v" ":WL\\[60\\]v"
"WL<61>v" ":WL\\[61\\]v"
"WL<62>v" ":WL\\[62\\]v"
"WL<63>v" ":WL\\[63\\]v"
"WL<64>v" ":WL\\[64\\]v"
"WL<65>v" ":WL\\[65\\]v"
"WL<66>v" ":WL\\[66\\]v"
"WL<67>v" ":WL\\[67\\]v"
"WL<68>v" ":WL\\[68\\]v"
"WL<69>v" ":WL\\[69\\]v"
"WL<70>v" ":WL\\[70\\]v"
"WL<71>v" ":WL\\[71\\]v"
"WL<72>v" ":WL\\[72\\]v"
"WL<73>v" ":WL\\[73\\]v"
"WL<74>v" ":WL\\[74\\]v"
"WL<75>v" ":WL\\[75\\]v"
"WL<76>v" ":WL\\[76\\]v"
"WL<77>v" ":WL\\[77\\]v"
"WL<78>v" ":WL\\[78\\]v"
"WL<79>v" ":WL\\[79\\]v"
"WL<80>v" ":WL\\[80\\]v"
"WL<81>v" ":WL\\[81\\]v"
"WL<82>v" ":WL\\[82\\]v"
"WL<83>v" ":WL\\[83\\]v"
"WL<84>v" ":WL\\[84\\]v"
"WL<85>v" ":WL\\[85\\]v"
"WL<86>v" ":WL\\[86\\]v"
"WL<87>v" ":WL\\[87\\]v"
"WL<88>v" ":WL\\[88\\]v"
"WL<89>v" ":WL\\[89\\]v"
"WL<90>v" ":WL\\[90\\]v"
"WL<91>v" ":WL\\[91\\]v"
"WL<92>v" ":WL\\[92\\]v"
"WL<93>v" ":WL\\[93\\]v"
"WL<94>v" ":WL\\[94\\]v"
"WL<95>v" ":WL\\[95\\]v"
"WL<96>v" ":WL\\[96\\]v"
"WL<97>v" ":WL\\[97\\]v"
"WL<98>v" ":WL\\[98\\]v"
"WL<99>v" ":WL\\[99\\]v"
"WL<100>v" ":WL\\[100\\]v"
"WL<101>v" ":WL\\[101\\]v"
"WL<102>v" ":WL\\[102\\]v"
"WL<103>v" ":WL\\[103\\]v"
"WL<104>v" ":WL\\[104\\]v"
"WL<105>v" ":WL\\[105\\]v"
"WL<106>v" ":WL\\[106\\]v"
"WL<107>v" ":WL\\[107\\]v"
"WL<108>v" ":WL\\[108\\]v"
"WL<109>v" ":WL\\[109\\]v"
"WL<110>v" ":WL\\[110\\]v"
"WL<111>v" ":WL\\[111\\]v"
"WL<112>v" ":WL\\[112\\]v"
"WL<113>v" ":WL\\[113\\]v"
"WL<114>v" ":WL\\[114\\]v"
"WL<115>v" ":WL\\[115\\]v"
"WL<116>v" ":WL\\[116\\]v"
"WL<117>v" ":WL\\[117\\]v"
"WL<118>v" ":WL\\[118\\]v"
"WL<119>v" ":WL\\[119\\]v"
"WL<120>v" ":WL\\[120\\]v"
"WL<121>v" ":WL\\[121\\]v"
"WL<122>v" ":WL\\[122\\]v"
"WL<123>v" ":WL\\[123\\]v"
"WL<124>v" ":WL\\[124\\]v"
"WL<125>v" ":WL\\[125\\]v"
"WL<126>v" ":WL\\[126\\]v"
"WL<127>v" ":WL\\[127\\]v"
"WL<128>v" ":WL\\[128\\]v"
"WL<129>v" ":WL\\[129\\]v"
"WL<130>v" ":WL\\[130\\]v"
"WL<131>v" ":WL\\[131\\]v"
"WL<132>v" ":WL\\[132\\]v"
"WL<133>v" ":WL\\[133\\]v"
"WL<134>v" ":WL\\[134\\]v"
"WL<135>v" ":WL\\[135\\]v"
"WL<136>v" ":WL\\[136\\]v"
"WL<137>v" ":WL\\[137\\]v"
"WL<138>v" ":WL\\[138\\]v"
"WL<139>v" ":WL\\[139\\]v"
"WL<140>v" ":WL\\[140\\]v"
"WL<141>v" ":WL\\[141\\]v"
"WL<142>v" ":WL\\[142\\]v"
"WL<143>v" ":WL\\[143\\]v"
"WL<144>v" ":WL\\[144\\]v"
"WL<145>v" ":WL\\[145\\]v"
"WL<146>v" ":WL\\[146\\]v"
"WL<147>v" ":WL\\[147\\]v"
"WL<148>v" ":WL\\[148\\]v"
"WL<149>v" ":WL\\[149\\]v"
"WL<150>v" ":WL\\[150\\]v"
"WL<151>v" ":WL\\[151\\]v"
"WL<152>v" ":WL\\[152\\]v"
"WL<153>v" ":WL\\[153\\]v"
"WL<154>v" ":WL\\[154\\]v"
"WL<155>v" ":WL\\[155\\]v"
"WL<156>v" ":WL\\[156\\]v"
"WL<157>v" ":WL\\[157\\]v"
"WL<158>v" ":WL\\[158\\]v"
"WL<159>v" ":WL\\[159\\]v"
"WL<160>v" ":WL\\[160\\]v"
"WL<161>v" ":WL\\[161\\]v"
"WL<162>v" ":WL\\[162\\]v"
"WL<163>v" ":WL\\[163\\]v"
"WL<164>v" ":WL\\[164\\]v"
"WL<165>v" ":WL\\[165\\]v"
"WL<166>v" ":WL\\[166\\]v"
"WL<167>v" ":WL\\[167\\]v"
"WL<168>v" ":WL\\[168\\]v"
"WL<169>v" ":WL\\[169\\]v"
"WL<170>v" ":WL\\[170\\]v"
"WL<171>v" ":WL\\[171\\]v"
"WL<172>v" ":WL\\[172\\]v"
"WL<173>v" ":WL\\[173\\]v"
"WL<174>v" ":WL\\[174\\]v"
"WL<175>v" ":WL\\[175\\]v"
"WL<176>v" ":WL\\[176\\]v"
"WL<177>v" ":WL\\[177\\]v"
"WL<178>v" ":WL\\[178\\]v"
"WL<179>v" ":WL\\[179\\]v"
"WL<180>v" ":WL\\[180\\]v"
"WL<181>v" ":WL\\[181\\]v"
"WL<182>v" ":WL\\[182\\]v"
"WL<183>v" ":WL\\[183\\]v"
"WL<184>v" ":WL\\[184\\]v"
"WL<185>v" ":WL\\[185\\]v"
"WL<186>v" ":WL\\[186\\]v"
"WL<187>v" ":WL\\[187\\]v"
"WL<188>v" ":WL\\[188\\]v"
"WL<189>v" ":WL\\[189\\]v"
"WL<190>v" ":WL\\[190\\]v"
"WL<191>v" ":WL\\[191\\]v"
"WL<192>v" ":WL\\[192\\]v"
"WL<193>v" ":WL\\[193\\]v"
"WL<194>v" ":WL\\[194\\]v"
"WL<195>v" ":WL\\[195\\]v"
"WL<196>v" ":WL\\[196\\]v"
"WL<197>v" ":WL\\[197\\]v"
"WL<198>v" ":WL\\[198\\]v"
"WL<199>v" ":WL\\[199\\]v"
"WL<200>v" ":WL\\[200\\]v"
"WL<201>v" ":WL\\[201\\]v"
"WL<202>v" ":WL\\[202\\]v"
"WL<203>v" ":WL\\[203\\]v"
"WL<204>v" ":WL\\[204\\]v"
"WL<205>v" ":WL\\[205\\]v"
"WL<206>v" ":WL\\[206\\]v"
"WL<207>v" ":WL\\[207\\]v"
"WL<208>v" ":WL\\[208\\]v"
"WL<209>v" ":WL\\[209\\]v"
"WL<210>v" ":WL\\[210\\]v"
"WL<211>v" ":WL\\[211\\]v"
"WL<212>v" ":WL\\[212\\]v"
"WL<213>v" ":WL\\[213\\]v"
"WL<214>v" ":WL\\[214\\]v"
"WL<215>v" ":WL\\[215\\]v"
"WL<216>v" ":WL\\[216\\]v"
"WL<217>v" ":WL\\[217\\]v"
"WL<218>v" ":WL\\[218\\]v"
"WL<219>v" ":WL\\[219\\]v"
"WL<220>v" ":WL\\[220\\]v"
"WL<221>v" ":WL\\[221\\]v"
"WL<222>v" ":WL\\[222\\]v"
"WL<223>v" ":WL\\[223\\]v"
"WL<224>v" ":WL\\[224\\]v"
"WL<225>v" ":WL\\[225\\]v"
"WL<226>v" ":WL\\[226\\]v"
"WL<227>v" ":WL\\[227\\]v"
"WL<228>v" ":WL\\[228\\]v"
"WL<229>v" ":WL\\[229\\]v"
"WL<230>v" ":WL\\[230\\]v"
"WL<231>v" ":WL\\[231\\]v"
"WL<232>v" ":WL\\[232\\]v"
"WL<233>v" ":WL\\[233\\]v"
"WL<234>v" ":WL\\[234\\]v"
"WL<235>v" ":WL\\[235\\]v"
"WL<236>v" ":WL\\[236\\]v"
"WL<237>v" ":WL\\[237\\]v"
"WL<238>v" ":WL\\[238\\]v"
"WL<239>v" ":WL\\[239\\]v"
"WL<240>v" ":WL\\[240\\]v"
"WL<241>v" ":WL\\[241\\]v"
"WL<242>v" ":WL\\[242\\]v"
"WL<243>v" ":WL\\[243\\]v"
"WL<244>v" ":WL\\[244\\]v"
"WL<245>v" ":WL\\[245\\]v"
"WL<246>v" ":WL\\[246\\]v"
"WL<247>v" ":WL\\[247\\]v"
"WL<248>v" ":WL\\[248\\]v"
"WL<249>v" ":WL\\[249\\]v"
"WL<250>v" ":WL\\[250\\]v"
"WL<251>v" ":WL\\[251\\]v"
"WL<252>v" ":WL\\[252\\]v"
"WL<253>v" ":WL\\[253\\]v"
"WL<254>v" ":WL\\[254\\]v"
"WL<255>v" ":WL\\[255\\]v"
"VDDv" "\:VDDv"
"GNDv" "\:GNDv"
