HEADER
"PSFversion" "1.00"
"V0n" "analogLib_vdc_spectre"
"V8n V7n V6n V5n V4n V3n V2n V1n" "analogLib_vpulse_spectre"
"I18n" "RowDecoder_256_4xP"
