HEADER
"PSFversion" "1.00"
"__NEXT_FILE__" "RowDecoder_256_4xP_TB"
