HEADER
"PSFversion" "1.00"
"IRow<0>n IRow<1>n IRow<2>n IRow<3>n IRow<4>n IRow<5>n IRow<6>n IRow<7>n IRow<8>n IRow<9>n IRow<10>n IRow<11>n IRow<12>n IRow<13>n IRow<14>n IRow<15>n IRow<16>n IRow<17>n IRow<18>n IRow<19>n IRow<20>n IRow<21>n IRow<22>n IRow<23>n IRow<24>n IRow<25>n IRow<26>n IRow<27>n IRow<28>n IRow<29>n IRow<30>n IRow<31>n IRow<32>n IRow<33>n IRow<34>n IRow<35>n IRow<36>n IRow<37>n IRow<38>n IRow<39>n IRow<40>n IRow<41>n IRow<42>n IRow<43>n IRow<44>n IRow<45>n IRow<46>n IRow<47>n IRow<48>n IRow<49>n IRow<50>n IRow<51>n IRow<52>n IRow<53>n IRow<54>n IRow<55>n IRow<56>n IRow<57>n IRow<58>n IRow<59>n IRow<60>n IRow<61>n IRow<62>n IRow<63>n IRow<64>n IRow<65>n IRow<66>n IRow<67>n IRow<68>n IRow<69>n IRow<70>n IRow<71>n IRow<72>n IRow<73>n IRow<74>n IRow<75>n IRow<76>n IRow<77>n IRow<78>n IRow<79>n IRow<80>n IRow<81>n IRow<82>n IRow<83>n IRow<84>n IRow<85>n IRow<86>n IRow<87>n IRow<88>n IRow<89>n IRow<90>n IRow<91>n IRow<92>n IRow<93>n IRow<94>n IRow<95>n IRow<96>n IRow<97>n IRow<98>n IRow<99>n IRow<100>n IRow<101>n IRow<102>n IRow<103>n IRow<104>n IRow<105>n IRow<106>n IRow<107>n IRow<108>n IRow<109>n IRow<110>n IRow<111>n IRow<112>n IRow<113>n IRow<114>n IRow<115>n IRow<116>n IRow<117>n IRow<118>n IRow<119>n IRow<120>n IRow<121>n IRow<122>n IRow<123>n IRow<124>n IRow<125>n IRow<126>n IRow<127>n IRow<128>n IRow<129>n IRow<130>n IRow<131>n IRow<132>n IRow<133>n IRow<134>n IRow<135>n IRow<136>n IRow<137>n IRow<138>n IRow<139>n IRow<140>n IRow<141>n IRow<142>n IRow<143>n IRow<144>n IRow<145>n IRow<146>n IRow<147>n IRow<148>n IRow<149>n IRow<150>n IRow<151>n IRow<152>n IRow<153>n IRow<154>n IRow<155>n IRow<156>n IRow<157>n IRow<158>n IRow<159>n IRow<160>n IRow<161>n IRow<162>n IRow<163>n IRow<164>n IRow<165>n IRow<166>n IRow<167>n IRow<168>n IRow<169>n IRow<170>n IRow<171>n IRow<172>n IRow<173>n IRow<174>n IRow<175>n IRow<176>n IRow<177>n IRow<178>n IRow<179>n IRow<180>n IRow<181>n IRow<182>n IRow<183>n IRow<184>n IRow<185>n IRow<186>n IRow<187>n IRow<188>n IRow<189>n IRow<190>n IRow<191>n IRow<192>n IRow<193>n IRow<194>n IRow<195>n IRow<196>n IRow<197>n IRow<198>n IRow<199>n IRow<200>n IRow<201>n IRow<202>n IRow<203>n IRow<204>n IRow<205>n IRow<206>n IRow<207>n IRow<208>n IRow<209>n IRow<210>n IRow<211>n IRow<212>n IRow<213>n IRow<214>n IRow<215>n IRow<216>n IRow<217>n IRow<218>n IRow<219>n IRow<220>n IRow<221>n IRow<222>n IRow<223>n IRow<224>n IRow<225>n IRow<226>n IRow<227>n IRow<228>n IRow<229>n IRow<230>n IRow<231>n IRow<232>n IRow<233>n IRow<234>n IRow<235>n IRow<236>n IRow<237>n IRow<238>n IRow<239>n IRow<240>n IRow<241>n IRow<242>n IRow<243>n IRow<244>n IRow<245>n IRow<246>n IRow<247>n IRow<248>n IRow<249>n IRow<250>n IRow<251>n IRow<252>n IRow<253>n IRow<254>n IRow<255>n" "BitCellRow"
"WL<255>v" ":1v"
"WL<254>v" ":2v"
"WL<253>v" ":3v"
"WL<252>v" ":4v"
"WL<251>v" ":5v"
"WL<250>v" ":6v"
"WL<249>v" ":7v"
"WL<248>v" ":8v"
"WL<247>v" ":9v"
"WL<246>v" ":10v"
"WL<245>v" ":11v"
"WL<244>v" ":12v"
"WL<243>v" ":13v"
"WL<242>v" ":14v"
"WL<241>v" ":15v"
"WL<240>v" ":16v"
"WL<239>v" ":17v"
"WL<238>v" ":18v"
"WL<237>v" ":19v"
"WL<236>v" ":20v"
"WL<235>v" ":21v"
"WL<234>v" ":22v"
"WL<233>v" ":23v"
"WL<232>v" ":24v"
"WL<231>v" ":25v"
"WL<230>v" ":26v"
"WL<229>v" ":27v"
"WL<228>v" ":28v"
"WL<227>v" ":29v"
"WL<226>v" ":30v"
"WL<225>v" ":31v"
"WL<224>v" ":32v"
"WL<223>v" ":33v"
"WL<222>v" ":34v"
"WL<221>v" ":35v"
"WL<220>v" ":36v"
"WL<219>v" ":37v"
"WL<218>v" ":38v"
"WL<217>v" ":39v"
"WL<216>v" ":40v"
"WL<215>v" ":41v"
"WL<214>v" ":42v"
"WL<213>v" ":43v"
"WL<212>v" ":44v"
"WL<211>v" ":45v"
"WL<210>v" ":46v"
"WL<209>v" ":47v"
"WL<208>v" ":48v"
"WL<207>v" ":49v"
"WL<206>v" ":50v"
"WL<205>v" ":51v"
"WL<204>v" ":52v"
"WL<203>v" ":53v"
"WL<202>v" ":54v"
"WL<201>v" ":55v"
"WL<200>v" ":56v"
"WL<199>v" ":57v"
"WL<198>v" ":58v"
"WL<197>v" ":59v"
"WL<196>v" ":60v"
"WL<195>v" ":61v"
"WL<194>v" ":62v"
"WL<193>v" ":63v"
"WL<192>v" ":64v"
"WL<191>v" ":65v"
"WL<190>v" ":66v"
"WL<189>v" ":67v"
"WL<188>v" ":68v"
"WL<187>v" ":69v"
"WL<186>v" ":70v"
"WL<185>v" ":71v"
"WL<184>v" ":72v"
"WL<183>v" ":73v"
"WL<182>v" ":74v"
"WL<181>v" ":75v"
"WL<180>v" ":76v"
"WL<179>v" ":77v"
"WL<178>v" ":78v"
"WL<177>v" ":79v"
"WL<176>v" ":80v"
"WL<175>v" ":81v"
"WL<174>v" ":82v"
"WL<173>v" ":83v"
"WL<172>v" ":84v"
"WL<171>v" ":85v"
"WL<170>v" ":86v"
"WL<169>v" ":87v"
"WL<168>v" ":88v"
"WL<167>v" ":89v"
"WL<166>v" ":90v"
"WL<165>v" ":91v"
"WL<164>v" ":92v"
"WL<163>v" ":93v"
"WL<162>v" ":94v"
"WL<161>v" ":95v"
"WL<160>v" ":96v"
"WL<159>v" ":97v"
"WL<158>v" ":98v"
"WL<157>v" ":99v"
"WL<156>v" ":100v"
"WL<155>v" ":101v"
"WL<154>v" ":102v"
"WL<153>v" ":103v"
"WL<152>v" ":104v"
"WL<151>v" ":105v"
"WL<150>v" ":106v"
"WL<149>v" ":107v"
"WL<148>v" ":108v"
"WL<147>v" ":109v"
"WL<146>v" ":110v"
"WL<145>v" ":111v"
"WL<144>v" ":112v"
"WL<143>v" ":113v"
"WL<142>v" ":114v"
"WL<141>v" ":115v"
"WL<140>v" ":116v"
"WL<139>v" ":117v"
"WL<138>v" ":118v"
"WL<137>v" ":119v"
"WL<136>v" ":120v"
"WL<135>v" ":121v"
"WL<134>v" ":122v"
"WL<133>v" ":123v"
"WL<132>v" ":124v"
"WL<131>v" ":125v"
"WL<130>v" ":126v"
"WL<129>v" ":127v"
"WL<128>v" ":128v"
"WL<127>v" ":129v"
"WL<126>v" ":130v"
"WL<125>v" ":131v"
"WL<124>v" ":132v"
"WL<123>v" ":133v"
"WL<122>v" ":134v"
"WL<121>v" ":135v"
"WL<120>v" ":136v"
"WL<119>v" ":137v"
"WL<118>v" ":138v"
"WL<117>v" ":139v"
"WL<116>v" ":140v"
"WL<115>v" ":141v"
"WL<114>v" ":142v"
"WL<113>v" ":143v"
"WL<112>v" ":144v"
"WL<111>v" ":145v"
"WL<110>v" ":146v"
"WL<109>v" ":147v"
"WL<108>v" ":148v"
"WL<107>v" ":149v"
"WL<106>v" ":150v"
"WL<105>v" ":151v"
"WL<104>v" ":152v"
"WL<103>v" ":153v"
"WL<102>v" ":154v"
"WL<101>v" ":155v"
"WL<100>v" ":156v"
"WL<99>v" ":157v"
"WL<98>v" ":158v"
"WL<97>v" ":159v"
"WL<96>v" ":160v"
"WL<95>v" ":161v"
"WL<94>v" ":162v"
"WL<93>v" ":163v"
"WL<92>v" ":164v"
"WL<91>v" ":165v"
"WL<90>v" ":166v"
"WL<89>v" ":167v"
"WL<88>v" ":168v"
"WL<87>v" ":169v"
"WL<86>v" ":170v"
"WL<85>v" ":171v"
"WL<84>v" ":172v"
"WL<83>v" ":173v"
"WL<82>v" ":174v"
"WL<81>v" ":175v"
"WL<80>v" ":176v"
"WL<79>v" ":177v"
"WL<78>v" ":178v"
"WL<77>v" ":179v"
"WL<76>v" ":180v"
"WL<75>v" ":181v"
"WL<74>v" ":182v"
"WL<73>v" ":183v"
"WL<72>v" ":184v"
"WL<71>v" ":185v"
"WL<70>v" ":186v"
"WL<69>v" ":187v"
"WL<68>v" ":188v"
"WL<67>v" ":189v"
"WL<66>v" ":190v"
"WL<65>v" ":191v"
"WL<64>v" ":192v"
"WL<63>v" ":193v"
"WL<62>v" ":194v"
"WL<61>v" ":195v"
"WL<60>v" ":196v"
"WL<59>v" ":197v"
"WL<58>v" ":198v"
"WL<57>v" ":199v"
"WL<56>v" ":200v"
"WL<55>v" ":201v"
"WL<54>v" ":202v"
"WL<53>v" ":203v"
"WL<52>v" ":204v"
"WL<51>v" ":205v"
"WL<50>v" ":206v"
"WL<49>v" ":207v"
"WL<48>v" ":208v"
"WL<47>v" ":209v"
"WL<46>v" ":210v"
"WL<45>v" ":211v"
"WL<44>v" ":212v"
"WL<43>v" ":213v"
"WL<42>v" ":214v"
"WL<41>v" ":215v"
"WL<40>v" ":216v"
"WL<39>v" ":217v"
"WL<38>v" ":218v"
"WL<37>v" ":219v"
"WL<36>v" ":220v"
"WL<35>v" ":221v"
"WL<34>v" ":222v"
"WL<33>v" ":223v"
"WL<32>v" ":224v"
"WL<31>v" ":225v"
"WL<30>v" ":226v"
"WL<29>v" ":227v"
"WL<28>v" ":228v"
"WL<27>v" ":229v"
"WL<26>v" ":230v"
"WL<25>v" ":231v"
"WL<24>v" ":232v"
"WL<23>v" ":233v"
"WL<22>v" ":234v"
"WL<21>v" ":235v"
"WL<20>v" ":236v"
"WL<19>v" ":237v"
"WL<18>v" ":238v"
"WL<17>v" ":239v"
"WL<16>v" ":240v"
"WL<15>v" ":241v"
"WL<14>v" ":242v"
"WL<13>v" ":243v"
"WL<12>v" ":244v"
"WL<11>v" ":245v"
"WL<10>v" ":246v"
"WL<9>v" ":247v"
"WL<8>v" ":248v"
"WL<7>v" ":249v"
"WL<6>v" ":250v"
"WL<5>v" ":251v"
"WL<4>v" ":252v"
"WL<3>v" ":253v"
"WL<2>v" ":254v"
"WL<1>v" ":255v"
"WL<0>v" ":256v"
