HEADER
"PSFversion" "1.00"
"design" "(\"project_1x\" \"RowDecoder_256_1xP_TB\" \"config\" \"\")"
"simulator" "spectre"
"temperature" "27"
"host" ""
"date" "Dec 16 17:32:49 2021"
"title" ""
"analysisList" "()"
END
