HEADER
"PSFversion" "1.00"
"Run Generator" "drlRun rev. 1.0"
"Run Time Stamp" "Dec 17 15:59:32 2021"
"simulator" "spectre"
"date" "Dec 17 15:59:32 2021"
 "externalSweepVariableCount" 0
"netlistDir" "../../../../../project_1x_RowDecoder_256_1xP_TB_schematic_spectre/netlist"
TYPE
"runObject" STRUCT(
"logName" ARRAY( * ) STRING *
"parent" STRING *
"sweepVariable" ARRAY( * ) STRING *
) PROP( "key" "runObject" )
VALUE
"Run1" "runObject" (
(
"logFile"
"artistLogFile"
)
""
()
)
END
