HEADER
"PSFversion" "1.00"
"design" "(\"project_1x\" \"RowDecoder_256_1xP_TB\" \"schematic\" \"\")"
"simulator" "spectre"
"temperature" "27"
"host" ""
"date" "Dec 17 16:58:52 2021"
"title" ""
"analysisList" "()"
END
