HEADER
"PSFversion" "1.00"
"simulator" "spectre"
"version" "18.1.0.556.isr13"
"date" "4:59:02 PM, Fri Dec 17, 2021"
"design" "// Generated for: spectre"
"analysis type" "info.subckts"
"analysis name" "subckts"
"analysis description" "Circuit Information"
"xVecSorted" "unknown"
"tolerance.relative" 0.00100000
TYPE
"subckt" STRUCT(
"subckt_params" STRING *
"subckt_terminals" STRING *
"subckt_instances" STRING *
) PROP(
"key" "sub"
)
VALUE
"PM_POST_L8_256T8_PEX\%WLSEL\<384\>" "subckt" (
""
"1 3 0"
"I18.I7.I0.x_PM_POST_L8_256T8_PEX%WLSEL<384>"
)
"p_12_lllvtrf" "subckt" (
""
""
""
)
"PM_POST_L8_256T8_PEX\%WLSEL\<1395\>" "subckt" (
""
"1 3"
"I18.I7.I0.x_PM_POST_L8_256T8_PEX%WLSEL<1395>"
)
"PM_POST_L8_256T8_PEX\%WLSEL\<776\>" "subckt" (
""
"1 3"
"I18.I7.I0.x_PM_POST_L8_256T8_PEX%WLSEL<776>"
)
"PM_POST_L8_256T8_PEX\%WLSEL\<1988\>" "subckt" (
""
"1 3"
"I18.I7.I0.x_PM_POST_L8_256T8_PEX%WLSEL<1988>"
)
"PM_POST_L8_256T8_PEX\%WLSEL\<1283\>" "subckt" (
""
"1 3"
"I18.I7.I0.x_PM_POST_L8_256T8_PEX%WLSEL<1283>"
)
"PM_POST_L8_256T8_PEX\%WLSEL\<420\>" "subckt" (
""
"1 3 0"
"I18.I7.I0.x_PM_POST_L8_256T8_PEX%WLSEL<420>"
)
"PM_POST_L8_256T8_PEX\%WLSEL\<740\>" "subckt" (
""
"1 3"
"I18.I7.I0.x_PM_POST_L8_256T8_PEX%WLSEL<740>"
)
"PM_POST_L8_256T8_PEX\%WLSEL\<189\>" "subckt" (
""
"1 3 0"
"I18.I7.I0.x_PM_POST_L8_256T8_PEX%WLSEL<189>"
)
"PM_POST_L8_256T8_PEX\%WLSEL\<1353\>" "subckt" (
""
"1 3"
"I18.I7.I0.x_PM_POST_L8_256T8_PEX%WLSEL<1353>"
)
"PM_POST_L8_256T8_PEX\%WLSEL\<887\>" "subckt" (
""
"1 3"
"I18.I7.I0.x_PM_POST_L8_256T8_PEX%WLSEL<887>"
)
"PM_POST_L8_256T8_PEX\%WLSEL\<2015\>" "subckt" (
""
"1 3"
"I18.I7.I0.x_PM_POST_L8_256T8_PEX%WLSEL<2015>"
)
"PM_POST_L8_256T8_PEX\%WLSEL\<1665\>" "subckt" (
""
"1 3"
"I18.I7.I0.x_PM_POST_L8_256T8_PEX%WLSEL<1665>"
)
"PM_POST_L8_256T8_PEX\%WLSEL\<590\>" "subckt" (
""
"1 3"
"I18.I7.I0.x_PM_POST_L8_256T8_PEX%WLSEL<590>"
)
"PM_POST_L8_256T8_PEX\%WLSEL\<1454\>" "subckt" (
""
"1 3"
"I18.I7.I0.x_PM_POST_L8_256T8_PEX%WLSEL<1454>"
)
"PM_POST_L8_256T8_PEX\%WLSEL\<1762\>" "subckt" (
""
"1 3"
"I18.I7.I0.x_PM_POST_L8_256T8_PEX%WLSEL<1762>"
)
"PM_POST_L8_256T8_PEX\%WLSEL\<1349\>" "subckt" (
""
"1 3"
"I18.I7.I0.x_PM_POST_L8_256T8_PEX%WLSEL<1349>"
)
"PM_POST_L8_256T8_PEX\%WLSEL\<1459\>" "subckt" (
""
"1 3"
"I18.I7.I0.x_PM_POST_L8_256T8_PEX%WLSEL<1459>"
)
"PM_POST_L8_256T8_PEX\%WLSEL\<1428\>" "subckt" (
""
"1 3"
"I18.I7.I0.x_PM_POST_L8_256T8_PEX%WLSEL<1428>"
)
"PM_POST_L8_256T8_PEX\%WLSEL\<1100\>" "subckt" (
""
"1 3"
"I18.I7.I0.x_PM_POST_L8_256T8_PEX%WLSEL<1100>"
)
"PM_POST_L8_256T8_PEX\%WLSEL\<1072\>" "subckt" (
""
"1 3"
"I18.I7.I0.x_PM_POST_L8_256T8_PEX%WLSEL<1072>"
)
"PM_POST_L8_256T8_PEX\%WLSEL\<1740\>" "subckt" (
""
"1 3"
"I18.I7.I0.x_PM_POST_L8_256T8_PEX%WLSEL<1740>"
)
"PM_POST_L8_256T8_PEX\%WLSEL\<1644\>" "subckt" (
""
"1 3"
"I18.I7.I0.x_PM_POST_L8_256T8_PEX%WLSEL<1644>"
)
"PM_POST_L8_256T8_PEX\%WLSEL\<1078\>" "subckt" (
""
"1 3"
"I18.I7.I0.x_PM_POST_L8_256T8_PEX%WLSEL<1078>"
)
"PM_POST_L8_256T8_PEX\%WLSEL\<1048\>" "subckt" (
""
"1 3"
"I18.I7.I0.x_PM_POST_L8_256T8_PEX%WLSEL<1048>"
)
"PM_POST_L8_256T8_PEX\%WLSEL\<1929\>" "subckt" (
""
"1 3"
"I18.I7.I0.x_PM_POST_L8_256T8_PEX%WLSEL<1929>"
)
"PM_POST_L8_256T8_PEX\%WLSEL\<1199\>" "subckt" (
""
"1 3"
"I18.I7.I0.x_PM_POST_L8_256T8_PEX%WLSEL<1199>"
)
"PM_POST_L8_256T8_PEX\%WLSEL\<843\>" "subckt" (
""
"1 3"
"I18.I7.I0.x_PM_POST_L8_256T8_PEX%WLSEL<843>"
)
"PM_POST_L8_256T8_PEX\%WLSEL\<1298\>" "subckt" (
""
"1 3"
"I18.I7.I0.x_PM_POST_L8_256T8_PEX%WLSEL<1298>"
)
"PM_POST_L8_256T8_PEX\%WLSEL\<351\>" "subckt" (
""
"1 3 0"
"I18.I7.I0.x_PM_POST_L8_256T8_PEX%WLSEL<351>"
)
"PM_POST_L8_256T8_PEX\%WLSEL\<1198\>" "subckt" (
""
"1 3"
"I18.I7.I0.x_PM_POST_L8_256T8_PEX%WLSEL<1198>"
)
"PM_POST_L8_256T8_PEX\%WLSEL\<1109\>" "subckt" (
""
"1 3"
"I18.I7.I0.x_PM_POST_L8_256T8_PEX%WLSEL<1109>"
)
"PM_POST_L8_256T8_PEX\%WLSEL\<1292\>" "subckt" (
""
"1 3"
"I18.I7.I0.x_PM_POST_L8_256T8_PEX%WLSEL<1292>"
)
"PM_POST_L8_256T8_PEX\%WLSEL\<550\>" "subckt" (
""
"1 3"
"I18.I7.I0.x_PM_POST_L8_256T8_PEX%WLSEL<550>"
)
"PM_POST_L8_256T8_PEX\%WLSEL\<663\>" "subckt" (
""
"1 3"
"I18.I7.I0.x_PM_POST_L8_256T8_PEX%WLSEL<663>"
)
"PM_POST_L8_256T8_PEX\%WLSEL\<129\>" "subckt" (
""
"1 3 0"
"I18.I7.I0.x_PM_POST_L8_256T8_PEX%WLSEL<129>"
)
"PM_POST_L8_256T8_PEX\%WLSEL\<13\>" "subckt" (
""
"1 3 0"
"I18.I7.I0.x_PM_POST_L8_256T8_PEX%WLSEL<13>"
)
"PM_POST_L8_256T8_PEX\%WLSEL\<178\>" "subckt" (
""
"1 3 0"
"I18.I7.I0.x_PM_POST_L8_256T8_PEX%WLSEL<178>"
)
"PM_POST_L8_256T8_PEX\%WLSEL\<1122\>" "subckt" (
""
"1 3"
"I18.I7.I0.x_PM_POST_L8_256T8_PEX%WLSEL<1122>"
)
"PM_POST_L8_256T8_PEX\%WLSEL\<1139\>" "subckt" (
""
"1 3"
"I18.I7.I0.x_PM_POST_L8_256T8_PEX%WLSEL<1139>"
)
"PM_POST_L8_256T8_PEX\%WLSEL\<1170\>" "subckt" (
""
"1 3"
"I18.I7.I0.x_PM_POST_L8_256T8_PEX%WLSEL<1170>"
)
"PM_POST_L8_256T8_PEX\%WLSEL\<1380\>" "subckt" (
""
"1 3"
"I18.I7.I0.x_PM_POST_L8_256T8_PEX%WLSEL<1380>"
)
"PM_POST_L8_256T8_PEX\%WLSEL\<1770\>" "subckt" (
""
"1 3"
"I18.I7.I0.x_PM_POST_L8_256T8_PEX%WLSEL<1770>"
)
"PM_POST_L8_256T8_PEX\%WLSEL\<544\>" "subckt" (
""
"1 3"
"I18.I7.I0.x_PM_POST_L8_256T8_PEX%WLSEL<544>"
)
"PM_POST_L8_256T8_PEX\%WLSEL\<1807\>" "subckt" (
""
"1 3"
"I18.I7.I0.x_PM_POST_L8_256T8_PEX%WLSEL<1807>"
)
"PM_POST_L8_256T8_PEX\%WLSEL\<1866\>" "subckt" (
""
"1 3"
"I18.I7.I0.x_PM_POST_L8_256T8_PEX%WLSEL<1866>"
)
"PM_POST_L8_256T8_PEX\%WLSEL\<852\>" "subckt" (
""
"1 3"
"I18.I7.I0.x_PM_POST_L8_256T8_PEX%WLSEL<852>"
)
"PM_POST_L8_256T8_PEX\%WLSEL\<1130\>" "subckt" (
""
"1 3"
"I18.I7.I0.x_PM_POST_L8_256T8_PEX%WLSEL<1130>"
)
"PM_POST_L8_256T8_PEX\%WLSEL\<486\>" "subckt" (
""
"1 3 0"
"I18.I7.I0.x_PM_POST_L8_256T8_PEX%WLSEL<486>"
)
"PM_POST_L8_256T8_PEX\%WLSEL\<1179\>" "subckt" (
""
"1 3"
"I18.I7.I0.x_PM_POST_L8_256T8_PEX%WLSEL<1179>"
)
"PM_POST_L8_256T8_PEX\%WLSEL\<1365\>" "subckt" (
""
"1 3"
"I18.I7.I0.x_PM_POST_L8_256T8_PEX%WLSEL<1365>"
)
"PM_POST_L8_256T8_PEX\%WLSEL\<1907\>" "subckt" (
""
"1 3"
"I18.I7.I0.x_PM_POST_L8_256T8_PEX%WLSEL<1907>"
)
"PM_POST_L8_256T8_PEX\%WLSEL\<2036\>" "subckt" (
""
"1 3"
"I18.I7.I0.x_PM_POST_L8_256T8_PEX%WLSEL<2036>"
)
"PM_POST_L8_256T8_PEX\%WLSEL\<834\>" "subckt" (
""
"1 3"
"I18.I7.I0.x_PM_POST_L8_256T8_PEX%WLSEL<834>"
)
"rnhr_nw_llrf" "subckt" (
""
""
""
)
"PM_POST_L8_256T8_PEX\%WLSEL\<60\>" "subckt" (
""
"1 3 0"
"I18.I7.I0.x_PM_POST_L8_256T8_PEX%WLSEL<60>"
)
"rnpd_ll" "subckt" (
""
""
""
)
"PM_POST_L8_256T8_PEX\%WLSEL\<70\>" "subckt" (
""
"1 3 0"
"I18.I7.I0.x_PM_POST_L8_256T8_PEX%WLSEL<70>"
)
"PM_POST_L8_256T8_PEX\%WLSEL\<1558\>" "subckt" (
""
"1 3"
"I18.I7.I0.x_PM_POST_L8_256T8_PEX%WLSEL<1558>"
)
"PM_POST_L8_256T8_PEX\%WLSEL\<1411\>" "subckt" (
""
"1 3"
"I18.I7.I0.x_PM_POST_L8_256T8_PEX%WLSEL<1411>"
)
"PM_POST_L8_256T8_PEX\%WLSEL\<1861\>" "subckt" (
""
"1 3"
"I18.I7.I0.x_PM_POST_L8_256T8_PEX%WLSEL<1861>"
)
"PM_POST_L8_256T8_PEX\%WLSEL\<918\>" "subckt" (
""
"1 3"
"I18.I7.I0.x_PM_POST_L8_256T8_PEX%WLSEL<918>"
)
"rsnwell_ll" "subckt" (
""
""
""
)
"PM_POST_L8_256T8_PEX\%WLSEL\<52\>" "subckt" (
""
"1 3 0"
"I18.I7.I0.x_PM_POST_L8_256T8_PEX%WLSEL<52>"
)
"PM_POST_L8_256T8_PEX\%WLSEL\<1953\>" "subckt" (
""
"1 3"
"I18.I7.I0.x_PM_POST_L8_256T8_PEX%WLSEL<1953>"
)
"rnnpo_nw_llrf" "subckt" (
""
""
""
)
"PM_POST_L8_256T8_PEX\%WLSEL\<271\>" "subckt" (
""
"1 3 0"
"I18.I7.I0.x_PM_POST_L8_256T8_PEX%WLSEL<271>"
)
"PM_POST_L8_256T8_PEX\%WLSEL\<1162\>" "subckt" (
""
"1 3"
"I18.I7.I0.x_PM_POST_L8_256T8_PEX%WLSEL<1162>"
)
"PM_POST_L8_256T8_PEX\%WLSEL\<563\>" "subckt" (
""
"1 3"
"I18.I7.I0.x_PM_POST_L8_256T8_PEX%WLSEL<563>"
)
"PM_POST_L8_256T8_PEX\%WLSEL\<1676\>" "subckt" (
""
"1 3"
"I18.I7.I0.x_PM_POST_L8_256T8_PEX%WLSEL<1676>"
)
"PM_POST_L8_256T8_PEX\%WLSEL\<947\>" "subckt" (
""
"1 3"
"I18.I7.I0.x_PM_POST_L8_256T8_PEX%WLSEL<947>"
)
"dion_ll" "subckt" (
""
""
""
)
"n_bpw_18_llrf" "subckt" (
""
""
""
)
"PM_POST_L8_256T8_PEX\%WLSEL\<1363\>" "subckt" (
""
"1 3"
"I18.I7.I0.x_PM_POST_L8_256T8_PEX%WLSEL<1363>"
)
"rnppo_ll" "subckt" (
""
""
""
)
"PM_POST_L8_256T8_PEX\%WLSEL\<606\>" "subckt" (
""
"1 3"
"I18.I7.I0.x_PM_POST_L8_256T8_PEX%WLSEL<606>"
)
"PM_POST_L8_256T8_PEX\%WLSEL\<1636\>" "subckt" (
""
"1 3"
"I18.I7.I0.x_PM_POST_L8_256T8_PEX%WLSEL<1636>"
)
"PM_POST_L8_256T8_PEX\%WLSEL\<991\>" "subckt" (
""
"1 3"
"I18.I7.I0.x_PM_POST_L8_256T8_PEX%WLSEL<991>"
)
"PM_POST_L8_256T8_PEX\%WLSEL\<1620\>" "subckt" (
""
"1 3"
"I18.I7.I0.x_PM_POST_L8_256T8_PEX%WLSEL<1620>"
)
"PM_POST_L8_256T8_PEX\%WLSEL\<369\>" "subckt" (
""
"1 3 0"
"I18.I7.I0.x_PM_POST_L8_256T8_PEX%WLSEL<369>"
)
"PM_POST_L8_256T8_PEX\%WLSEL\<362\>" "subckt" (
""
"1 3 0"
"I18.I7.I0.x_PM_POST_L8_256T8_PEX%WLSEL<362>"
)
"PM_POST_L8_256T8_PEX\%WLSEL\<1682\>" "subckt" (
""
"1 3"
"I18.I7.I0.x_PM_POST_L8_256T8_PEX%WLSEL<1682>"
)
"PM_POST_L8_256T8_PEX\%WLSEL\<266\>" "subckt" (
""
"1 3 0"
"I18.I7.I0.x_PM_POST_L8_256T8_PEX%WLSEL<266>"
)
"PM_POST_L8_256T8_PEX\%WLSEL\<591\>" "subckt" (
""
"1 3"
"I18.I7.I0.x_PM_POST_L8_256T8_PEX%WLSEL<591>"
)
"PM_POST_L8_256T8_PEX\%WLSEL\<1190\>" "subckt" (
""
"1 3"
"I18.I7.I0.x_PM_POST_L8_256T8_PEX%WLSEL<1190>"
)
"PM_POST_L8_256T8_PEX\%WLSEL\<1445\>" "subckt" (
""
"1 3"
"I18.I7.I0.x_PM_POST_L8_256T8_PEX%WLSEL<1445>"
)
"PM_POST_L8_256T8_PEX\%WLSEL\<77\>" "subckt" (
""
"1 3 0"
"I18.I7.I0.x_PM_POST_L8_256T8_PEX%WLSEL<77>"
)
"PM_POST_L8_256T8_PEX\%WLSEL\<1703\>" "subckt" (
""
"1 3"
"I18.I7.I0.x_PM_POST_L8_256T8_PEX%WLSEL<1703>"
)
"PM_POST_L8_256T8_PEX\%WLSEL\<469\>" "subckt" (
""
"1 3 0"
"I18.I7.I0.x_PM_POST_L8_256T8_PEX%WLSEL<469>"
)
"PM_POST_L8_256T8_PEX\%WLSEL\<1131\>" "subckt" (
""
"1 3"
"I18.I7.I0.x_PM_POST_L8_256T8_PEX%WLSEL<1131>"
)
"PM_POST_L8_256T8_PEX\%WLSEL\<496\>" "subckt" (
""
"1 3 0"
"I18.I7.I0.x_PM_POST_L8_256T8_PEX%WLSEL<496>"
)
"PM_POST_L8_256T8_PEX\%WLSEL\<1432\>" "subckt" (
""
"1 3"
"I18.I7.I0.x_PM_POST_L8_256T8_PEX%WLSEL<1432>"
)
"PM_POST_L8_256T8_PEX\%WLSEL\<1434\>" "subckt" (
""
"1 3"
"I18.I7.I0.x_PM_POST_L8_256T8_PEX%WLSEL<1434>"
)
"PM_POST_L8_256T8_PEX\%WLSEL\<481\>" "subckt" (
""
"1 3 0"
"I18.I7.I0.x_PM_POST_L8_256T8_PEX%WLSEL<481>"
)
"PM_POST_L8_256T8_PEX\%WLSEL\<1937\>" "subckt" (
""
"1 3"
"I18.I7.I0.x_PM_POST_L8_256T8_PEX%WLSEL<1937>"
)
"PM_POST_L8_256T8_PEX\%WLSEL\<238\>" "subckt" (
""
"1 3 0"
"I18.I7.I0.x_PM_POST_L8_256T8_PEX%WLSEL<238>"
)
"PM_POST_L8_256T8_PEX\%WLSEL\<1976\>" "subckt" (
""
"1 3"
"I18.I7.I0.x_PM_POST_L8_256T8_PEX%WLSEL<1976>"
)
"p_25_llrf" "subckt" (
""
""
""
)
"PM_POST_L8_256T8_PEX\%WLSEL\<1839\>" "subckt" (
""
"1 3"
"I18.I7.I0.x_PM_POST_L8_256T8_PEX%WLSEL<1839>"
)
"PM_POST_L8_256T8_PEX\%WLSEL\<1549\>" "subckt" (
""
"1 3"
"I18.I7.I0.x_PM_POST_L8_256T8_PEX%WLSEL<1549>"
)
"PM_POST_L8_256T8_PEX\%WLSEL\<48\>" "subckt" (
""
"1 3 0"
"I18.I7.I0.x_PM_POST_L8_256T8_PEX%WLSEL<48>"
)
"PM_POST_L8_256T8_PEX\%WLSEL\<74\>" "subckt" (
""
"1 3 0"
"I18.I7.I0.x_PM_POST_L8_256T8_PEX%WLSEL<74>"
)
"PM_POST_L8_256T8_PEX\%WLSEL\<274\>" "subckt" (
""
"1 3 0"
"I18.I7.I0.x_PM_POST_L8_256T8_PEX%WLSEL<274>"
)
"PM_POST_L8_256T8_PEX\%WLSEL\<1871\>" "subckt" (
""
"1 3"
"I18.I7.I0.x_PM_POST_L8_256T8_PEX%WLSEL<1871>"
)
"PM_POST_L8_256T8_PEX\%WLSEL\<307\>" "subckt" (
""
"1 3 0"
"I18.I7.I0.x_PM_POST_L8_256T8_PEX%WLSEL<307>"
)
"varmis_33_llrf" "subckt" (
""
""
""
)
"PM_POST_L8_256T8_PEX\%WLSEL\<882\>" "subckt" (
""
"1 3"
"I18.I7.I0.x_PM_POST_L8_256T8_PEX%WLSEL<882>"
)
"PM_POST_L8_256T8_PEX\%WLSEL\<242\>" "subckt" (
""
"1 3 0"
"I18.I7.I0.x_PM_POST_L8_256T8_PEX%WLSEL<242>"
)
"PM_POST_L8_256T8_PEX\%WLSEL\<1116\>" "subckt" (
""
"1 3"
"I18.I7.I0.x_PM_POST_L8_256T8_PEX%WLSEL<1116>"
)
"PM_POST_L8_256T8_PEX\%WLSEL\<624\>" "subckt" (
""
"1 3"
"I18.I7.I0.x_PM_POST_L8_256T8_PEX%WLSEL<624>"
)
"PM_POST_L8_256T8_PEX\%WLSEL\<807\>" "subckt" (
""
"1 3"
"I18.I7.I0.x_PM_POST_L8_256T8_PEX%WLSEL<807>"
)
"PM_POST_L8_256T8_PEX\%WLSEL\<1874\>" "subckt" (
""
"1 3"
"I18.I7.I0.x_PM_POST_L8_256T8_PEX%WLSEL<1874>"
)
"momcaps_array_vp4_rfvcl" "subckt" (
""
""
""
)
"PM_POST_L8_256T8_PEX\%WLSEL\<1660\>" "subckt" (
""
"1 3"
"I18.I7.I0.x_PM_POST_L8_256T8_PEX%WLSEL<1660>"
)
"PM_POST_L8_256T8_PEX\%WLSEL\<1656\>" "subckt" (
""
"1 3"
"I18.I7.I0.x_PM_POST_L8_256T8_PEX%WLSEL<1656>"
)
"PM_POST_L8_256T8_PEX\%WLSEL\<1229\>" "subckt" (
""
"1 3"
"I18.I7.I0.x_PM_POST_L8_256T8_PEX%WLSEL<1229>"
)
"PM_POST_L8_256T8_PEX\%WLSEL\<1343\>" "subckt" (
""
"1 3"
"I18.I7.I0.x_PM_POST_L8_256T8_PEX%WLSEL<1343>"
)
"PM_POST_L8_256T8_PEX\%WLSEL\<2003\>" "subckt" (
""
"1 3"
"I18.I7.I0.x_PM_POST_L8_256T8_PEX%WLSEL<2003>"
)
"PM_POST_L8_256T8_PEX\%WLSEL\<555\>" "subckt" (
""
"1 3"
"I18.I7.I0.x_PM_POST_L8_256T8_PEX%WLSEL<555>"
)
"PM_POST_L8_256T8_PEX\%WLSEL\<1706\>" "subckt" (
""
"1 3"
"I18.I7.I0.x_PM_POST_L8_256T8_PEX%WLSEL<1706>"
)
"PM_POST_L8_256T8_PEX\%WLSEL\<951\>" "subckt" (
""
"1 3"
"I18.I7.I0.x_PM_POST_L8_256T8_PEX%WLSEL<951>"
)
"PM_POST_L8_256T8_PEX\%WLSEL\<1086\>" "subckt" (
""
"1 3"
"I18.I7.I0.x_PM_POST_L8_256T8_PEX%WLSEL<1086>"
)
"PM_POST_L8_256T8_PEX\%WLSEL\<2012\>" "subckt" (
""
"1 3"
"I18.I7.I0.x_PM_POST_L8_256T8_PEX%WLSEL<2012>"
)
"PM_POST_L8_256T8_PEX\%WLSEL\<267\>" "subckt" (
""
"1 3 0"
"I18.I7.I0.x_PM_POST_L8_256T8_PEX%WLSEL<267>"
)
"PM_POST_L8_256T8_PEX\%WLSEL\<626\>" "subckt" (
""
"1 3"
"I18.I7.I0.x_PM_POST_L8_256T8_PEX%WLSEL<626>"
)
"PM_POST_L8_256T8_PEX\%WLSEL\<1781\>" "subckt" (
""
"1 3"
"I18.I7.I0.x_PM_POST_L8_256T8_PEX%WLSEL<1781>"
)
"PM_POST_L8_256T8_PEX\%WLSEL\<1961\>" "subckt" (
""
"1 3"
"I18.I7.I0.x_PM_POST_L8_256T8_PEX%WLSEL<1961>"
)
"PM_POST_L8_256T8_PEX\%WLSEL\<278\>" "subckt" (
""
"1 3 0"
"I18.I7.I0.x_PM_POST_L8_256T8_PEX%WLSEL<278>"
)
"PM_POST_L8_256T8_PEX\%WLSEL\<755\>" "subckt" (
""
"1 3"
"I18.I7.I0.x_PM_POST_L8_256T8_PEX%WLSEL<755>"
)
"PM_POST_L8_256T8_PEX\%WLSEL\<522\>" "subckt" (
""
"1 3"
"I18.I7.I0.x_PM_POST_L8_256T8_PEX%WLSEL<522>"
)
"PM_POST_L8_256T8_PEX\%WLSEL\<89\>" "subckt" (
""
"1 3 0"
"I18.I7.I0.x_PM_POST_L8_256T8_PEX%WLSEL<89>"
)
"PM_POST_L8_256T8_PEX\%WLSEL\<1626\>" "subckt" (
""
"1 3"
"I18.I7.I0.x_PM_POST_L8_256T8_PEX%WLSEL<1626>"
)
"PM_POST_L8_256T8_PEX\%WLSEL\<538\>" "subckt" (
""
"1 3"
"I18.I7.I0.x_PM_POST_L8_256T8_PEX%WLSEL<538>"
)
"PM_POST_L8_256T8_PEX\%WLSEL\<1979\>" "subckt" (
""
"1 3"
"I18.I7.I0.x_PM_POST_L8_256T8_PEX%WLSEL<1979>"
)
"PM_POST_L8_256T8_PEX\%WLSEL\<1608\>" "subckt" (
""
"1 3"
"I18.I7.I0.x_PM_POST_L8_256T8_PEX%WLSEL<1608>"
)
"PM_POST_L8_256T8_PEX\%WLSEL\<956\>" "subckt" (
""
"1 3"
"I18.I7.I0.x_PM_POST_L8_256T8_PEX%WLSEL<956>"
)
"PM_POST_L8_256T8_PEX\%WLSEL\<426\>" "subckt" (
""
"1 3 0"
"I18.I7.I0.x_PM_POST_L8_256T8_PEX%WLSEL<426>"
)
"PM_POST_L8_256T8_PEX\%WLSEL\<503\>" "subckt" (
""
"1 3 0"
"I18.I7.I0.x_PM_POST_L8_256T8_PEX%WLSEL<503>"
)
"PM_POST_L8_256T8_PEX\%WLSEL\<1698\>" "subckt" (
""
"1 3"
"I18.I7.I0.x_PM_POST_L8_256T8_PEX%WLSEL<1698>"
)
"PM_POST_L8_256T8_PEX\%WLSEL\<1339\>" "subckt" (
""
"1 3"
"I18.I7.I0.x_PM_POST_L8_256T8_PEX%WLSEL<1339>"
)
"PM_POST_L8_256T8_PEX\%WLSEL\<1707\>" "subckt" (
""
"1 3"
"I18.I7.I0.x_PM_POST_L8_256T8_PEX%WLSEL<1707>"
)
"PM_POST_L8_256T8_PEX\%WLSEL\<1647\>" "subckt" (
""
"1 3"
"I18.I7.I0.x_PM_POST_L8_256T8_PEX%WLSEL<1647>"
)
"PM_POST_L8_256T8_PEX\%WLSEL\<1248\>" "subckt" (
""
"1 3"
"I18.I7.I0.x_PM_POST_L8_256T8_PEX%WLSEL<1248>"
)
"PM_POST_L8_256T8_PEX\%WLSEL\<2037\>" "subckt" (
""
"1 3"
"I18.I7.I0.x_PM_POST_L8_256T8_PEX%WLSEL<2037>"
)
"PM_POST_L8_256T8_PEX\%WLSEL\<1050\>" "subckt" (
""
"1 3"
"I18.I7.I0.x_PM_POST_L8_256T8_PEX%WLSEL<1050>"
)
"PM_POST_L8_256T8_PEX\%WLSEL\<187\>" "subckt" (
""
"1 3 0"
"I18.I7.I0.x_PM_POST_L8_256T8_PEX%WLSEL<187>"
)
"PM_POST_L8_256T8_PEX\%WLSEL\<950\>" "subckt" (
""
"1 3"
"I18.I7.I0.x_PM_POST_L8_256T8_PEX%WLSEL<950>"
)
"PM_POST_L8_256T8_PEX\%WLSEL\<9\>" "subckt" (
""
"1 3 0"
"I18.I7.I0.x_PM_POST_L8_256T8_PEX%WLSEL<9>"
)
"PM_POST_L8_256T8_PEX\%WLSEL\<409\>" "subckt" (
""
"1 3 0"
"I18.I7.I0.x_PM_POST_L8_256T8_PEX%WLSEL<409>"
)
"PM_POST_L8_256T8_PEX\%WLSEL\<700\>" "subckt" (
""
"1 3"
"I18.I7.I0.x_PM_POST_L8_256T8_PEX%WLSEL<700>"
)
"PM_POST_L8_256T8_PEX\%WLSEL\<1542\>" "subckt" (
""
"1 3"
"I18.I7.I0.x_PM_POST_L8_256T8_PEX%WLSEL<1542>"
)
"PM_POST_L8_256T8_PEX\%WLSEL\<831\>" "subckt" (
""
"1 3"
"I18.I7.I0.x_PM_POST_L8_256T8_PEX%WLSEL<831>"
)
"PM_POST_L8_256T8_PEX\%WLSEL\<239\>" "subckt" (
""
"1 3 0"
"I18.I7.I0.x_PM_POST_L8_256T8_PEX%WLSEL<239>"
)
"PM_POST_L8_256T8_PEX\%WLSEL\<1581\>" "subckt" (
""
"1 3"
"I18.I7.I0.x_PM_POST_L8_256T8_PEX%WLSEL<1581>"
)
"PM_POST_L8_256T8_PEX\%WLSEL\<965\>" "subckt" (
""
"1 3"
"I18.I7.I0.x_PM_POST_L8_256T8_PEX%WLSEL<965>"
)
"PM_POST_L8_256T8_PEX\%WLSEL\<640\>" "subckt" (
""
"1 3"
"I18.I7.I0.x_PM_POST_L8_256T8_PEX%WLSEL<640>"
)
"PM_POST_L8_256T8_PEX\%WLSEL\<1671\>" "subckt" (
""
"1 3"
"I18.I7.I0.x_PM_POST_L8_256T8_PEX%WLSEL<1671>"
)
"PM_POST_L8_256T8_PEX\%WLSEL\<285\>" "subckt" (
""
"1 3 0"
"I18.I7.I0.x_PM_POST_L8_256T8_PEX%WLSEL<285>"
)
"PM_POST_L8_256T8_PEX\%WLSEL\<1655\>" "subckt" (
""
"1 3"
"I18.I7.I0.x_PM_POST_L8_256T8_PEX%WLSEL<1655>"
)
"PM_POST_L8_256T8_PEX\%WLSEL\<322\>" "subckt" (
""
"1 3 0"
"I18.I7.I0.x_PM_POST_L8_256T8_PEX%WLSEL<322>"
)
"PM_POST_L8_256T8_PEX\%WLSEL\<300\>" "subckt" (
""
"1 3 0"
"I18.I7.I0.x_PM_POST_L8_256T8_PEX%WLSEL<300>"
)
"PM_POST_L8_256T8_PEX\%WLSEL\<379\>" "subckt" (
""
"1 3 0"
"I18.I7.I0.x_PM_POST_L8_256T8_PEX%WLSEL<379>"
)
"PM_POST_L8_256T8_PEX\%WLSEL\<1254\>" "subckt" (
""
"1 3"
"I18.I7.I0.x_PM_POST_L8_256T8_PEX%WLSEL<1254>"
)
"PM_POST_L8_256T8_PEX\%WLSEL\<198\>" "subckt" (
""
"1 3 0"
"I18.I7.I0.x_PM_POST_L8_256T8_PEX%WLSEL<198>"
)
"PM_POST_L8_256T8_PEX\%WLSEL\<221\>" "subckt" (
""
"1 3 0"
"I18.I7.I0.x_PM_POST_L8_256T8_PEX%WLSEL<221>"
)
"PM_POST_L8_256T8_PEX\%SEL0\<0\>" "subckt" (
""
"3 7 11 15 19 23 27 31 35 39 43 47 51 55 59 63 67 71 75 79 83 87 91 95 99 103 107 111 115 119 123 127 135 139 143 147 151 155 159 163 167 171 175 179 183 187 191 195 199 203 207 211 215 219 223 227 231 235 239 243 247 251 255 259 267 271 275 279 283 287 291 295 299 303 307 311 315 319 323 327 331 335 339 343 347 351 355 359 363 367 371 375 379 383 387 391 399 403 407 411 415 419 423 427 431 435 439 443 447 451 455 459 463 467 471 475 479 483 487 491 495 499 503 507 511 515 519 523 1289 1293 1297 1301 1305 1309 1313 1317 1321 1325 1329 1333 1337 1341 1345 1349 1353 1357 1361 1365 1369 1373 1377 1381 1385 1389 1393 1397 1401 1405 1409 1413 1417 1421 1425 1429 1433 1437 1441 1445 1449 1453 1457 1461 1465 1469 1473 1477 1481 1485 1489 1493 1497 1501 1505 1509 1513 1517 1521 1525 1529 1533 1537 1541 1545 1549 1553 1557 1561 1565 1569 1573 1577 1581 1585 1589 1593 1597 1601 1605 1609 1613 1617 1621 1625 1629 1633 1637 1641 1645 1649 1653 1657 1661 1665 1669 1673 1677 1681 1685 1689 1693 1697 1701 1705 1709 1713 1717 1721 1725 1729 1733 1737 1741 1745 1749 1753 1757 1761 1765 1769 1773 1777 1781 1785 1789 1793 1797 1801 1802 1803 1804 1805 1806 1807 1808 1809 1810 1811 1812 1813 1814 1815 1816 1817 1818 1819 1820 1821 1822 1823 1824 1825 1826 1827 1828 1829 1830 1831 1832 1833 1834 1835 1836 1837 1838 1839 1840 1841 1842 1843 1844 1845 1846 1847 1848 1849 1850 1851 1852 1853 1854 1855 1856 1857 1858 1859 1860 1861 1862 1863 1864 1865 1866 1867 1868 1869 1870 1871 1872 1873 1874 1875 1876 1877 1878 1879 1880 1881 1882 1883 1884 1885 1886 1887 1888 1889 1890 1891 1892 1893 1894 1895 1896 1897 1898 1899 1900 1901 1902 1903 1904 1905 1906 1907 1908 1909 1910 1911 1912 1913 1914 1915 1916 1917 1918 1919 1920 1921 1922 1923 1924 1925 1926 1927 1928 0"
"I18.I7.I0.x_PM_POST_L8_256T8_PEX%SEL0<0>"
)
"PM_POST_L8_256T8_PEX\%WLSEL\<1314\>" "subckt" (
""
"1 3"
"I18.I7.I0.x_PM_POST_L8_256T8_PEX%WLSEL<1314>"
)
"PM_POST_L8_256T8_PEX\%WLSEL\<1692\>" "subckt" (
""
"1 3"
"I18.I7.I0.x_PM_POST_L8_256T8_PEX%WLSEL<1692>"
)
"PM_POST_L8_256T8_PEX\%WLSEL\<319\>" "subckt" (
""
"1 3 0"
"I18.I7.I0.x_PM_POST_L8_256T8_PEX%WLSEL<319>"
)
"PM_POST_L8_256T8_PEX\%WLSEL\<638\>" "subckt" (
""
"1 3"
"I18.I7.I0.x_PM_POST_L8_256T8_PEX%WLSEL<638>"
)
"PM_POST_L8_256T8_PEX\%WLSEL\<1796\>" "subckt" (
""
"1 3"
"I18.I7.I0.x_PM_POST_L8_256T8_PEX%WLSEL<1796>"
)
"PM_POST_L8_256T8_PEX\%WLSEL\<720\>" "subckt" (
""
"1 3"
"I18.I7.I0.x_PM_POST_L8_256T8_PEX%WLSEL<720>"
)
"PM_POST_L8_256T8_PEX\%WLSEL\<1083\>" "subckt" (
""
"1 3"
"I18.I7.I0.x_PM_POST_L8_256T8_PEX%WLSEL<1083>"
)
"PM_POST_L8_256T8_PEX\%WLSEL\<765\>" "subckt" (
""
"1 3"
"I18.I7.I0.x_PM_POST_L8_256T8_PEX%WLSEL<765>"
)
"BitCellLoad_L" "subckt" (
""
"WL gnd vdd"