HEADER
"PSFversion" "1.00"
"I2<1>n I2<0>n" "Post_L4_16t8"
"Sel0<1>v" ":1v"
"Sel0<0>v" ":2v"
"Sel1<1>v" ":3v"
"Sel1<0>v" ":4v"
"Sel2<1>v" ":5v"
"Sel2<0>v" ":6v"
"Sel3<1>v" ":7v"
"Sel3<0>v" ":8v"
"Sel4<1>v" ":9v"
"Sel4<0>v" ":10v"
"Sel5v" ":11v"
"Sel6v" ":12v"
"Sel7v" ":13v"
"WL<255>v" ":14v"
"WL<254>v" ":15v"
"WL<253>v" ":16v"
"WL<252>v" ":17v"
"WL<251>v" ":18v"
"WL<250>v" ":19v"
"WL<249>v" ":20v"
"WL<248>v" ":21v"
"WL<247>v" ":22v"
"WL<246>v" ":23v"
"WL<245>v" ":24v"
"WL<244>v" ":25v"
"WL<243>v" ":26v"
"WL<242>v" ":27v"
"WL<241>v" ":28v"
"WL<240>v" ":29v"
"WL<239>v" ":30v"
"WL<238>v" ":31v"
"WL<237>v" ":32v"
"WL<236>v" ":33v"
"WL<235>v" ":34v"
"WL<234>v" ":35v"
"WL<233>v" ":36v"
"WL<232>v" ":37v"
"WL<231>v" ":38v"
"WL<230>v" ":39v"
"WL<229>v" ":40v"
"WL<228>v" ":41v"
"WL<227>v" ":42v"
"WL<226>v" ":43v"
"WL<225>v" ":44v"
"WL<224>v" ":45v"
"WL<223>v" ":46v"
"WL<222>v" ":47v"
"WL<221>v" ":48v"
"WL<220>v" ":49v"
"WL<219>v" ":50v"
"WL<218>v" ":51v"
"WL<217>v" ":52v"
"WL<216>v" ":53v"
"WL<215>v" ":54v"
"WL<214>v" ":55v"
"WL<213>v" ":56v"
"WL<212>v" ":57v"
"WL<211>v" ":58v"
"WL<210>v" ":59v"
"WL<209>v" ":60v"
"WL<208>v" ":61v"
"WL<207>v" ":62v"
"WL<206>v" ":63v"
"WL<205>v" ":64v"
"WL<204>v" ":65v"
"WL<203>v" ":66v"
"WL<202>v" ":67v"
"WL<201>v" ":68v"
"WL<200>v" ":69v"
"WL<199>v" ":70v"
"WL<198>v" ":71v"
"WL<197>v" ":72v"
"WL<196>v" ":73v"
"WL<195>v" ":74v"
"WL<194>v" ":75v"
"WL<193>v" ":76v"
"WL<192>v" ":77v"
"WL<191>v" ":78v"
"WL<190>v" ":79v"
"WL<189>v" ":80v"
"WL<188>v" ":81v"
"WL<187>v" ":82v"
"WL<186>v" ":83v"
"WL<185>v" ":84v"
"WL<184>v" ":85v"
"WL<183>v" ":86v"
"WL<182>v" ":87v"
"WL<181>v" ":88v"
"WL<180>v" ":89v"
"WL<179>v" ":90v"
"WL<178>v" ":91v"
"WL<177>v" ":92v"
"WL<176>v" ":93v"
"WL<175>v" ":94v"
"WL<174>v" ":95v"
"WL<173>v" ":96v"
"WL<172>v" ":97v"
"WL<171>v" ":98v"
"WL<170>v" ":99v"
"WL<169>v" ":100v"
"WL<168>v" ":101v"
"WL<167>v" ":102v"
"WL<166>v" ":103v"
"WL<165>v" ":104v"
"WL<164>v" ":105v"
"WL<163>v" ":106v"
"WL<162>v" ":107v"
"WL<161>v" ":108v"
"WL<160>v" ":109v"
"WL<159>v" ":110v"
"WL<158>v" ":111v"
"WL<157>v" ":112v"
"WL<156>v" ":113v"
"WL<155>v" ":114v"
"WL<154>v" ":115v"
"WL<153>v" ":116v"
"WL<152>v" ":117v"
"WL<151>v" ":118v"
"WL<150>v" ":119v"
"WL<149>v" ":120v"
"WL<148>v" ":121v"
"WL<147>v" ":122v"
"WL<146>v" ":123v"
"WL<145>v" ":124v"
"WL<144>v" ":125v"
"WL<143>v" ":126v"
"WL<142>v" ":127v"
"WL<141>v" ":128v"
"WL<140>v" ":129v"
"WL<139>v" ":130v"
"WL<138>v" ":131v"
"WL<137>v" ":132v"
"WL<136>v" ":133v"
"WL<135>v" ":134v"
"WL<134>v" ":135v"
"WL<133>v" ":136v"
"WL<132>v" ":137v"
"WL<131>v" ":138v"
"WL<130>v" ":139v"
"WL<129>v" ":140v"
"WL<128>v" ":141v"
"WL<127>v" ":142v"
"WL<126>v" ":143v"
"WL<125>v" ":144v"
"WL<124>v" ":145v"
"WL<123>v" ":146v"
"WL<122>v" ":147v"
"WL<121>v" ":148v"
"WL<120>v" ":149v"
"WL<119>v" ":150v"
"WL<118>v" ":151v"
"WL<117>v" ":152v"
"WL<116>v" ":153v"
"WL<115>v" ":154v"
"WL<114>v" ":155v"
"WL<113>v" ":156v"
"WL<112>v" ":157v"
"WL<111>v" ":158v"
"WL<110>v" ":159v"
"WL<109>v" ":160v"
"WL<108>v" ":161v"
"WL<107>v" ":162v"
"WL<106>v" ":163v"
"WL<105>v" ":164v"
"WL<104>v" ":165v"
"WL<103>v" ":166v"
"WL<102>v" ":167v"
"WL<101>v" ":168v"
"WL<100>v" ":169v"
"WL<99>v" ":170v"
"WL<98>v" ":171v"
"WL<97>v" ":172v"
"WL<96>v" ":173v"
"WL<95>v" ":174v"
"WL<94>v" ":175v"
"WL<93>v" ":176v"
"WL<92>v" ":177v"
"WL<91>v" ":178v"
"WL<90>v" ":179v"
"WL<89>v" ":180v"
"WL<88>v" ":181v"
"WL<87>v" ":182v"
"WL<86>v" ":183v"
"WL<85>v" ":184v"
"WL<84>v" ":185v"
"WL<83>v" ":186v"
"WL<82>v" ":187v"
"WL<81>v" ":188v"
"WL<80>v" ":189v"
"WL<79>v" ":190v"
"WL<78>v" ":191v"
"WL<77>v" ":192v"
"WL<76>v" ":193v"
"WL<75>v" ":194v"
"WL<74>v" ":195v"
"WL<73>v" ":196v"
"WL<72>v" ":197v"
"WL<71>v" ":198v"
"WL<70>v" ":199v"
"WL<69>v" ":200v"
"WL<68>v" ":201v"
"WL<67>v" ":202v"
"WL<66>v" ":203v"
"WL<65>v" ":204v"
"WL<64>v" ":205v"
"WL<63>v" ":206v"
"WL<62>v" ":207v"
"WL<61>v" ":208v"
"WL<60>v" ":209v"
"WL<59>v" ":210v"
"WL<58>v" ":211v"
"WL<57>v" ":212v"
"WL<56>v" ":213v"
"WL<55>v" ":214v"
"WL<54>v" ":215v"
"WL<53>v" ":216v"
"WL<52>v" ":217v"
"WL<51>v" ":218v"
"WL<50>v" ":219v"
"WL<49>v" ":220v"
"WL<48>v" ":221v"
"WL<47>v" ":222v"
"WL<46>v" ":223v"
"WL<45>v" ":224v"
"WL<44>v" ":225v"
"WL<43>v" ":226v"
"WL<42>v" ":227v"
"WL<41>v" ":228v"
"WL<40>v" ":229v"
"WL<39>v" ":230v"
"WL<38>v" ":231v"
"WL<37>v" ":232v"
"WL<36>v" ":233v"
"WL<35>v" ":234v"
"WL<34>v" ":235v"
"WL<33>v" ":236v"
"WL<32>v" ":237v"
"WL<31>v" ":238v"
"WL<30>v" ":239v"
"WL<29>v" ":240v"
"WL<28>v" ":241v"
"WL<27>v" ":242v"
"WL<26>v" ":243v"
"WL<25>v" ":244v"
"WL<24>v" ":245v"
"WL<23>v" ":246v"
"WL<22>v" ":247v"
"WL<21>v" ":248v"
"WL<20>v" ":249v"
"WL<19>v" ":250v"
"WL<18>v" ":251v"
"WL<17>v" ":252v"
"WL<16>v" ":253v"
"WL<15>v" ":254v"
"WL<14>v" ":255v"
"WL<13>v" ":256v"
"WL<12>v" ":257v"
"WL<11>v" ":258v"
"WL<10>v" ":259v"
"WL<9>v" ":260v"
"WL<8>v" ":261v"
"WL<7>v" ":262v"
"WL<6>v" ":263v"
"WL<5>v" ":264v"
"WL<4>v" ":265v"
"WL<3>v" ":266v"
"WL<2>v" ":267v"
"WL<1>v" ":268v"
"WL<0>v" ":269v"
