HEADER
"PSFversion" "1.00"
"I2<1>n I2<0>n" "Post_L7_128t8"
"Rwire7<1>n Rwire7<0>n Rwire0<1>n Rwire0<0>n Rwire1<1>n Rwire1<0>n Rwire2<1>n Rwire2<0>n Rwire3<1>n Rwire3<0>n Rwire4<1>n Rwire4<0>n Rwire5<1>n Rwire5<0>n Rwire6<1>n Rwire6<0>n" "analogLib_res_spectre"
"Cwire0<1>n Cwire0<0>n Cwire1<1>n Cwire1<0>n Cwire2<1>n Cwire2<0>n Cwire3<1>n Cwire3<0>n Cwire4<1>n Cwire4<0>n Cwire5<1>n Cwire5<0>n Cwire6<1>n Cwire6<0>n Cwire7<1>n Cwire7<0>n" "analogLib_cap_spectre"
"Sel0<1>v" ":1v"
"Sel0<0>v" ":2v"
"Sel1<1>v" ":3v"
"Sel1<0>v" ":4v"
"Sel2<1>v" ":5v"
"Sel2<0>v" ":6v"
"Sel3<1>v" ":7v"
"Sel3<0>v" ":8v"
"Sel4<1>v" ":9v"
"Sel4<0>v" ":10v"
"Sel5<1>v" ":11v"
"Sel5<0>v" ":12v"
"Sel6<1>v" ":13v"
"Sel6<0>v" ":14v"
"Sel7<1>v" ":15v"
"Sel7<0>v" ":16v"
"WLSel<2047>v" ":17v"
"WLSel<2046>v" ":18v"
"WLSel<2045>v" ":19v"
"WLSel<2044>v" ":20v"
"WLSel<2043>v" ":21v"
"WLSel<2042>v" ":22v"
"WLSel<2041>v" ":23v"
"WLSel<2040>v" ":24v"
"WLSel<2039>v" ":25v"
"WLSel<2038>v" ":26v"
"WLSel<2037>v" ":27v"
"WLSel<2036>v" ":28v"
"WLSel<2035>v" ":29v"
"WLSel<2034>v" ":30v"
"WLSel<2033>v" ":31v"
"WLSel<2032>v" ":32v"
"WLSel<2031>v" ":33v"
"WLSel<2030>v" ":34v"
"WLSel<2029>v" ":35v"
"WLSel<2028>v" ":36v"
"WLSel<2027>v" ":37v"
"WLSel<2026>v" ":38v"
"WLSel<2025>v" ":39v"
"WLSel<2024>v" ":40v"
"WLSel<2023>v" ":41v"
"WLSel<2022>v" ":42v"
"WLSel<2021>v" ":43v"
"WLSel<2020>v" ":44v"
"WLSel<2019>v" ":45v"
"WLSel<2018>v" ":46v"
"WLSel<2017>v" ":47v"
"WLSel<2016>v" ":48v"
"WLSel<2015>v" ":49v"
"WLSel<2014>v" ":50v"
"WLSel<2013>v" ":51v"
"WLSel<2012>v" ":52v"
"WLSel<2011>v" ":53v"
"WLSel<2010>v" ":54v"
"WLSel<2009>v" ":55v"
"WLSel<2008>v" ":56v"
"WLSel<2007>v" ":57v"
"WLSel<2006>v" ":58v"
"WLSel<2005>v" ":59v"
"WLSel<2004>v" ":60v"
"WLSel<2003>v" ":61v"
"WLSel<2002>v" ":62v"
"WLSel<2001>v" ":63v"
"WLSel<2000>v" ":64v"
"WLSel<1999>v" ":65v"
"WLSel<1998>v" ":66v"
"WLSel<1997>v" ":67v"
"WLSel<1996>v" ":68v"
"WLSel<1995>v" ":69v"
"WLSel<1994>v" ":70v"
"WLSel<1993>v" ":71v"
"WLSel<1992>v" ":72v"
"WLSel<1991>v" ":73v"
"WLSel<1990>v" ":74v"
"WLSel<1989>v" ":75v"
"WLSel<1988>v" ":76v"
"WLSel<1987>v" ":77v"
"WLSel<1986>v" ":78v"
"WLSel<1985>v" ":79v"
"WLSel<1984>v" ":80v"
"WLSel<1983>v" ":81v"
"WLSel<1982>v" ":82v"
"WLSel<1981>v" ":83v"
"WLSel<1980>v" ":84v"
"WLSel<1979>v" ":85v"
"WLSel<1978>v" ":86v"
"WLSel<1977>v" ":87v"
"WLSel<1976>v" ":88v"
"WLSel<1975>v" ":89v"
"WLSel<1974>v" ":90v"
"WLSel<1973>v" ":91v"
"WLSel<1972>v" ":92v"
"WLSel<1971>v" ":93v"
"WLSel<1970>v" ":94v"
"WLSel<1969>v" ":95v"
"WLSel<1968>v" ":96v"
"WLSel<1967>v" ":97v"
"WLSel<1966>v" ":98v"
"WLSel<1965>v" ":99v"
"WLSel<1964>v" ":100v"
"WLSel<1963>v" ":101v"
"WLSel<1962>v" ":102v"
"WLSel<1961>v" ":103v"
"WLSel<1960>v" ":104v"
"WLSel<1959>v" ":105v"
"WLSel<1958>v" ":106v"
"WLSel<1957>v" ":107v"
"WLSel<1956>v" ":108v"
"WLSel<1955>v" ":109v"
"WLSel<1954>v" ":110v"
"WLSel<1953>v" ":111v"
"WLSel<1952>v" ":112v"
"WLSel<1951>v" ":113v"
"WLSel<1950>v" ":114v"
"WLSel<1949>v" ":115v"
"WLSel<1948>v" ":116v"
"WLSel<1947>v" ":117v"
"WLSel<1946>v" ":118v"
"WLSel<1945>v" ":119v"
"WLSel<1944>v" ":120v"
"WLSel<1943>v" ":121v"
"WLSel<1942>v" ":122v"
"WLSel<1941>v" ":123v"
"WLSel<1940>v" ":124v"
"WLSel<1939>v" ":125v"
"WLSel<1938>v" ":126v"
"WLSel<1937>v" ":127v"
"WLSel<1936>v" ":128v"
"WLSel<1935>v" ":129v"
"WLSel<1934>v" ":130v"
"WLSel<1933>v" ":131v"
"WLSel<1932>v" ":132v"
"WLSel<1931>v" ":133v"
"WLSel<1930>v" ":134v"
"WLSel<1929>v" ":135v"
"WLSel<1928>v" ":136v"
"WLSel<1927>v" ":137v"
"WLSel<1926>v" ":138v"
"WLSel<1925>v" ":139v"
"WLSel<1924>v" ":140v"
"WLSel<1923>v" ":141v"
"WLSel<1922>v" ":142v"
"WLSel<1921>v" ":143v"
"WLSel<1920>v" ":144v"
"WLSel<1919>v" ":145v"
"WLSel<1918>v" ":146v"
"WLSel<1917>v" ":147v"
"WLSel<1916>v" ":148v"
"WLSel<1915>v" ":149v"
"WLSel<1914>v" ":150v"
"WLSel<1913>v" ":151v"
"WLSel<1912>v" ":152v"
"WLSel<1911>v" ":153v"
"WLSel<1910>v" ":154v"
"WLSel<1909>v" ":155v"
"WLSel<1908>v" ":156v"
"WLSel<1907>v" ":157v"
"WLSel<1906>v" ":158v"
"WLSel<1905>v" ":159v"
"WLSel<1904>v" ":160v"
"WLSel<1903>v" ":161v"
"WLSel<1902>v" ":162v"
"WLSel<1901>v" ":163v"
"WLSel<1900>v" ":164v"
"WLSel<1899>v" ":165v"
"WLSel<1898>v" ":166v"
"WLSel<1897>v" ":167v"
"WLSel<1896>v" ":168v"
"WLSel<1895>v" ":169v"
"WLSel<1894>v" ":170v"
"WLSel<1893>v" ":171v"
"WLSel<1892>v" ":172v"
"WLSel<1891>v" ":173v"
"WLSel<1890>v" ":174v"
"WLSel<1889>v" ":175v"
"WLSel<1888>v" ":176v"
"WLSel<1887>v" ":177v"
"WLSel<1886>v" ":178v"
"WLSel<1885>v" ":179v"
"WLSel<1884>v" ":180v"
"WLSel<1883>v" ":181v"
"WLSel<1882>v" ":182v"
"WLSel<1881>v" ":183v"
"WLSel<1880>v" ":184v"
"WLSel<1879>v" ":185v"
"WLSel<1878>v" ":186v"
"WLSel<1877>v" ":187v"
"WLSel<1876>v" ":188v"
"WLSel<1875>v" ":189v"
"WLSel<1874>v" ":190v"
"WLSel<1873>v" ":191v"
"WLSel<1872>v" ":192v"
"WLSel<1871>v" ":193v"
"WLSel<1870>v" ":194v"
"WLSel<1869>v" ":195v"
"WLSel<1868>v" ":196v"
"WLSel<1867>v" ":197v"
"WLSel<1866>v" ":198v"
"WLSel<1865>v" ":199v"
"WLSel<1864>v" ":200v"
"WLSel<1863>v" ":201v"
"WLSel<1862>v" ":202v"
"WLSel<1861>v" ":203v"
"WLSel<1860>v" ":204v"
"WLSel<1859>v" ":205v"
"WLSel<1858>v" ":206v"
"WLSel<1857>v" ":207v"
"WLSel<1856>v" ":208v"
"WLSel<1855>v" ":209v"
"WLSel<1854>v" ":210v"
"WLSel<1853>v" ":211v"
"WLSel<1852>v" ":212v"
"WLSel<1851>v" ":213v"
"WLSel<1850>v" ":214v"
"WLSel<1849>v" ":215v"
"WLSel<1848>v" ":216v"
"WLSel<1847>v" ":217v"
"WLSel<1846>v" ":218v"
"WLSel<1845>v" ":219v"
"WLSel<1844>v" ":220v"
"WLSel<1843>v" ":221v"
"WLSel<1842>v" ":222v"
"WLSel<1841>v" ":223v"
"WLSel<1840>v" ":224v"
"WLSel<1839>v" ":225v"
"WLSel<1838>v" ":226v"
"WLSel<1837>v" ":227v"
"WLSel<1836>v" ":228v"
"WLSel<1835>v" ":229v"
"WLSel<1834>v" ":230v"
"WLSel<1833>v" ":231v"
"WLSel<1832>v" ":232v"
"WLSel<1831>v" ":233v"
"WLSel<1830>v" ":234v"
"WLSel<1829>v" ":235v"
"WLSel<1828>v" ":236v"
"WLSel<1827>v" ":237v"
"WLSel<1826>v" ":238v"
"WLSel<1825>v" ":239v"
"WLSel<1824>v" ":240v"
"WLSel<1823>v" ":241v"
"WLSel<1822>v" ":242v"
"WLSel<1821>v" ":243v"
"WLSel<1820>v" ":244v"
"WLSel<1819>v" ":245v"
"WLSel<1818>v" ":246v"
"WLSel<1817>v" ":247v"
"WLSel<1816>v" ":248v"
"WLSel<1815>v" ":249v"
"WLSel<1814>v" ":250v"
"WLSel<1813>v" ":251v"
"WLSel<1812>v" ":252v"
"WLSel<1811>v" ":253v"
"WLSel<1810>v" ":254v"
"WLSel<1809>v" ":255v"
"WLSel<1808>v" ":256v"
"WLSel<1807>v" ":257v"
"WLSel<1806>v" ":258v"
"WLSel<1805>v" ":259v"
"WLSel<1804>v" ":260v"
"WLSel<1803>v" ":261v"
"WLSel<1802>v" ":262v"
"WLSel<1801>v" ":263v"
"WLSel<1800>v" ":264v"
"WLSel<1799>v" ":265v"
"WLSel<1798>v" ":266v"
"WLSel<1797>v" ":267v"
"WLSel<1796>v" ":268v"
"WLSel<1795>v" ":269v"
"WLSel<1794>v" ":270v"
"WLSel<1793>v" ":271v"
"WLSel<1792>v" ":272v"
"WLSel<1791>v" ":273v"
"WLSel<1790>v" ":274v"
"WLSel<1789>v" ":275v"
"WLSel<1788>v" ":276v"
"WLSel<1787>v" ":277v"
"WLSel<1786>v" ":278v"
"WLSel<1785>v" ":279v"
"WLSel<1784>v" ":280v"
"WLSel<1783>v" ":281v"
"WLSel<1782>v" ":282v"
"WLSel<1781>v" ":283v"
"WLSel<1780>v" ":284v"
"WLSel<1779>v" ":285v"
"WLSel<1778>v" ":286v"
"WLSel<1777>v" ":287v"
"WLSel<1776>v" ":288v"
"WLSel<1775>v" ":289v"
"WLSel<1774>v" ":290v"
"WLSel<1773>v" ":291v"
"WLSel<1772>v" ":292v"
"WLSel<1771>v" ":293v"
"WLSel<1770>v" ":294v"
"WLSel<1769>v" ":295v"
"WLSel<1768>v" ":296v"
"WLSel<1767>v" ":297v"
"WLSel<1766>v" ":298v"
"WLSel<1765>v" ":299v"
"WLSel<1764>v" ":300v"
"WLSel<1763>v" ":301v"
"WLSel<1762>v" ":302v"
"WLSel<1761>v" ":303v"
"WLSel<1760>v" ":304v"
"WLSel<1759>v" ":305v"
"WLSel<1758>v" ":306v"
"WLSel<1757>v" ":307v"
"WLSel<1756>v" ":308v"
"WLSel<1755>v" ":309v"
"WLSel<1754>v" ":310v"
"WLSel<1753>v" ":311v"
"WLSel<1752>v" ":312v"
"WLSel<1751>v" ":313v"
"WLSel<1750>v" ":314v"
"WLSel<1749>v" ":315v"
"WLSel<1748>v" ":316v"
"WLSel<1747>v" ":317v"
"WLSel<1746>v" ":318v"
"WLSel<1745>v" ":319v"
"WLSel<1744>v" ":320v"
"WLSel<1743>v" ":321v"
"WLSel<1742>v" ":322v"
"WLSel<1741>v" ":323v"
"WLSel<1740>v" ":324v"
"WLSel<1739>v" ":325v"
"WLSel<1738>v" ":326v"
"WLSel<1737>v" ":327v"
"WLSel<1736>v" ":328v"
"WLSel<1735>v" ":329v"
"WLSel<1734>v" ":330v"
"WLSel<1733>v" ":331v"
"WLSel<1732>v" ":332v"
"WLSel<1731>v" ":333v"
"WLSel<1730>v" ":334v"
"WLSel<1729>v" ":335v"
"WLSel<1728>v" ":336v"
"WLSel<1727>v" ":337v"
"WLSel<1726>v" ":338v"
"WLSel<1725>v" ":339v"
"WLSel<1724>v" ":340v"
"WLSel<1723>v" ":341v"
"WLSel<1722>v" ":342v"
"WLSel<1721>v" ":343v"
"WLSel<1720>v" ":344v"
"WLSel<1719>v" ":345v"
"WLSel<1718>v" ":346v"
"WLSel<1717>v" ":347v"
"WLSel<1716>v" ":348v"
"WLSel<1715>v" ":349v"
"WLSel<1714>v" ":350v"
"WLSel<1713>v" ":351v"
"WLSel<1712>v" ":352v"
"WLSel<1711>v" ":353v"
"WLSel<1710>v" ":354v"
"WLSel<1709>v" ":355v"
"WLSel<1708>v" ":356v"
"WLSel<1707>v" ":357v"
"WLSel<1706>v" ":358v"
"WLSel<1705>v" ":359v"
"WLSel<1704>v" ":360v"
"WLSel<1703>v" ":361v"
"WLSel<1702>v" ":362v"
"WLSel<1701>v" ":363v"
"WLSel<1700>v" ":364v"
"WLSel<1699>v" ":365v"
"WLSel<1698>v" ":366v"
"WLSel<1697>v" ":367v"
"WLSel<1696>v" ":368v"
"WLSel<1695>v" ":369v"
"WLSel<1694>v" ":370v"
"WLSel<1693>v" ":371v"
"WLSel<1692>v" ":372v"
"WLSel<1691>v" ":373v"
"WLSel<1690>v" ":374v"
"WLSel<1689>v" ":375v"
"WLSel<1688>v" ":376v"
"WLSel<1687>v" ":377v"
"WLSel<1686>v" ":378v"
"WLSel<1685>v" ":379v"
"WLSel<1684>v" ":380v"
"WLSel<1683>v" ":381v"
"WLSel<1682>v" ":382v"
"WLSel<1681>v" ":383v"
"WLSel<1680>v" ":384v"
"WLSel<1679>v" ":385v"
"WLSel<1678>v" ":386v"
"WLSel<1677>v" ":387v"
"WLSel<1676>v" ":388v"
"WLSel<1675>v" ":389v"
"WLSel<1674>v" ":390v"
"WLSel<1673>v" ":391v"
"WLSel<1672>v" ":392v"
"WLSel<1671>v" ":393v"
"WLSel<1670>v" ":394v"
"WLSel<1669>v" ":395v"
"WLSel<1668>v" ":396v"
"WLSel<1667>v" ":397v"
"WLSel<1666>v" ":398v"
"WLSel<1665>v" ":399v"
"WLSel<1664>v" ":400v"
"WLSel<1663>v" ":401v"
"WLSel<1662>v" ":402v"
"WLSel<1661>v" ":403v"
"WLSel<1660>v" ":404v"
"WLSel<1659>v" ":405v"
"WLSel<1658>v" ":406v"
"WLSel<1657>v" ":407v"
"WLSel<1656>v" ":408v"
"WLSel<1655>v" ":409v"
"WLSel<1654>v" ":410v"
"WLSel<1653>v" ":411v"
"WLSel<1652>v" ":412v"
"WLSel<1651>v" ":413v"
"WLSel<1650>v" ":414v"
"WLSel<1649>v" ":415v"
"WLSel<1648>v" ":416v"
"WLSel<1647>v" ":417v"
"WLSel<1646>v" ":418v"
"WLSel<1645>v" ":419v"
"WLSel<1644>v" ":420v"
"WLSel<1643>v" ":421v"
"WLSel<1642>v" ":422v"
"WLSel<1641>v" ":423v"
"WLSel<1640>v" ":424v"
"WLSel<1639>v" ":425v"
"WLSel<1638>v" ":426v"
"WLSel<1637>v" ":427v"
"WLSel<1636>v" ":428v"
"WLSel<1635>v" ":429v"
"WLSel<1634>v" ":430v"
"WLSel<1633>v" ":431v"
"WLSel<1632>v" ":432v"
"WLSel<1631>v" ":433v"
"WLSel<1630>v" ":434v"
"WLSel<1629>v" ":435v"
"WLSel<1628>v" ":436v"
"WLSel<1627>v" ":437v"
"WLSel<1626>v" ":438v"
"WLSel<1625>v" ":439v"
"WLSel<1624>v" ":440v"
"WLSel<1623>v" ":441v"
"WLSel<1622>v" ":442v"
"WLSel<1621>v" ":443v"
"WLSel<1620>v" ":444v"
"WLSel<1619>v" ":445v"
"WLSel<1618>v" ":446v"
"WLSel<1617>v" ":447v"
"WLSel<1616>v" ":448v"
"WLSel<1615>v" ":449v"
"WLSel<1614>v" ":450v"
"WLSel<1613>v" ":451v"
"WLSel<1612>v" ":452v"
"WLSel<1611>v" ":453v"
"WLSel<1610>v" ":454v"
"WLSel<1609>v" ":455v"
"WLSel<1608>v" ":456v"
"WLSel<1607>v" ":457v"
"WLSel<1606>v" ":458v"
"WLSel<1605>v" ":459v"
"WLSel<1604>v" ":460v"
"WLSel<1603>v" ":461v"
"WLSel<1602>v" ":462v"
"WLSel<1601>v" ":463v"
"WLSel<1600>v" ":464v"
"WLSel<1599>v" ":465v"
"WLSel<1598>v" ":466v"
"WLSel<1597>v" ":467v"
"WLSel<1596>v" ":468v"
"WLSel<1595>v" ":469v"
"WLSel<1594>v" ":470v"
"WLSel<1593>v" ":471v"
"WLSel<1592>v" ":472v"
"WLSel<1591>v" ":473v"
"WLSel<1590>v" ":474v"
"WLSel<1589>v" ":475v"
"WLSel<1588>v" ":476v"
"WLSel<1587>v" ":477v"
"WLSel<1586>v" ":478v"
"WLSel<1585>v" ":479v"
"WLSel<1584>v" ":480v"
"WLSel<1583>v" ":481v"
"WLSel<1582>v" ":482v"
"WLSel<1581>v" ":483v"
"WLSel<1580>v" ":484v"
"WLSel<1579>v" ":485v"
"WLSel<1578>v" ":486v"
"WLSel<1577>v" ":487v"
"WLSel<1576>v" ":488v"
"WLSel<1575>v" ":489v"
"WLSel<1574>v" ":490v"
"WLSel<1573>v" ":491v"
"WLSel<1572>v" ":492v"
"WLSel<1571>v" ":493v"
"WLSel<1570>v" ":494v"
"WLSel<1569>v" ":495v"
"WLSel<1568>v" ":496v"
"WLSel<1567>v" ":497v"
"WLSel<1566>v" ":498v"
"WLSel<1565>v" ":499v"
"WLSel<1564>v" ":500v"
"WLSel<1563>v" ":501v"
"WLSel<1562>v" ":502v"
"WLSel<1561>v" ":503v"
"WLSel<1560>v" ":504v"
"WLSel<1559>v" ":505v"
"WLSel<1558>v" ":506v"
"WLSel<1557>v" ":507v"
"WLSel<1556>v" ":508v"
"WLSel<1555>v" ":509v"
"WLSel<1554>v" ":510v"
"WLSel<1553>v" ":511v"
"WLSel<1552>v" ":512v"
"WLSel<1551>v" ":513v"
"WLSel<1550>v" ":514v"
"WLSel<1549>v" ":515v"
"WLSel<1548>v" ":516v"
"WLSel<1547>v" ":517v"
"WLSel<1546>v" ":518v"
"WLSel<1545>v" ":519v"
"WLSel<1544>v" ":520v"
"WLSel<1543>v" ":521v"
"WLSel<1542>v" ":522v"
"WLSel<1541>v" ":523v"
"WLSel<1540>v" ":524v"
"WLSel<1539>v" ":525v"
"WLSel<1538>v" ":526v"
"WLSel<1537>v" ":527v"
"WLSel<1536>v" ":528v"
"WLSel<1535>v" ":529v"
"WLSel<1534>v" ":530v"
"WLSel<1533>v" ":531v"
"WLSel<1532>v" ":532v"
"WLSel<1531>v" ":533v"
"WLSel<1530>v" ":534v"
"WLSel<1529>v" ":535v"
"WLSel<1528>v" ":536v"
"WLSel<1527>v" ":537v"
"WLSel<1526>v" ":538v"
"WLSel<1525>v" ":539v"
"WLSel<1524>v" ":540v"
"WLSel<1523>v" ":541v"
"WLSel<1522>v" ":542v"
"WLSel<1521>v" ":543v"
"WLSel<1520>v" ":544v"
"WLSel<1519>v" ":545v"
"WLSel<1518>v" ":546v"
"WLSel<1517>v" ":547v"
"WLSel<1516>v" ":548v"
"WLSel<1515>v" ":549v"
"WLSel<1514>v" ":550v"
"WLSel<1513>v" ":551v"
"WLSel<1512>v" ":552v"
"WLSel<1511>v" ":553v"
"WLSel<1510>v" ":554v"
"WLSel<1509>v" ":555v"
"WLSel<1508>v" ":556v"
"WLSel<1507>v" ":557v"
"WLSel<1506>v" ":558v"
"WLSel<1505>v" ":559v"
"WLSel<1504>v" ":560v"
"WLSel<1503>v" ":561v"
"WLSel<1502>v" ":562v"
"WLSel<1501>v" ":563v"
"WLSel<1500>v" ":564v"
"WLSel<1499>v" ":565v"
"WLSel<1498>v" ":566v"
"WLSel<1497>v" ":567v"
"WLSel<1496>v" ":568v"
"WLSel<1495>v" ":569v"
"WLSel<1494>v" ":570v"
"WLSel<1493>v" ":571v"
"WLSel<1492>v" ":572v"
"WLSel<1491>v" ":573v"
"WLSel<1490>v" ":574v"
"WLSel<1489>v" ":575v"
"WLSel<1488>v" ":576v"
"WLSel<1487>v" ":577v"
"WLSel<1486>v" ":578v"
"WLSel<1485>v" ":579v"
"WLSel<1484>v" ":580v"
"WLSel<1483>v" ":581v"
"WLSel<1482>v" ":582v"
"WLSel<1481>v" ":583v"
"WLSel<1480>v" ":584v"
"WLSel<1479>v" ":585v"
"WLSel<1478>v" ":586v"
"WLSel<1477>v" ":587v"
"WLSel<1476>v" ":588v"
"WLSel<1475>v" ":589v"
"WLSel<1474>v" ":590v"
"WLSel<1473>v" ":591v"
"WLSel<1472>v" ":592v"
"WLSel<1471>v" ":593v"
"WLSel<1470>v" ":594v"
"WLSel<1469>v" ":595v"
"WLSel<1468>v" ":596v"
"WLSel<1467>v" ":597v"
"WLSel<1466>v" ":598v"
"WLSel<1465>v" ":599v"
"WLSel<1464>v" ":600v"
"WLSel<1463>v" ":601v"
"WLSel<1462>v" ":602v"
"WLSel<1461>v" ":603v"
"WLSel<1460>v" ":604v"
"WLSel<1459>v" ":605v"
"WLSel<1458>v" ":606v"
"WLSel<1457>v" ":607v"
"WLSel<1456>v" ":608v"
"WLSel<1455>v" ":609v"
"WLSel<1454>v" ":610v"
"WLSel<1453>v" ":611v"
"WLSel<1452>v" ":612v"
"WLSel<1451>v" ":613v"
"WLSel<1450>v" ":614v"
"WLSel<1449>v" ":615v"
"WLSel<1448>v" ":616v"
"WLSel<1447>v" ":617v"
"WLSel<1446>v" ":618v"
"WLSel<1445>v" ":619v"
"WLSel<1444>v" ":620v"
"WLSel<1443>v" ":621v"
"WLSel<1442>v" ":622v"
"WLSel<1441>v" ":623v"
"WLSel<1440>v" ":624v"
"WLSel<1439>v" ":625v"
"WLSel<1438>v" ":626v"
"WLSel<1437>v" ":627v"
"WLSel<1436>v" ":628v"
"WLSel<1435>v" ":629v"
"WLSel<1434>v" ":630v"
"WLSel<1433>v" ":631v"
"WLSel<1432>v" ":632v"
"WLSel<1431>v" ":633v"
"WLSel<1430>v" ":634v"
"WLSel<1429>v" ":635v"
"WLSel<1428>v" ":636v"
"WLSel<1427>v" ":637v"
"WLSel<1426>v" ":638v"
"WLSel<1425>v" ":639v"
"WLSel<1424>v" ":640v"
"WLSel<1423>v" ":641v"
"WLSel<1422>v" ":642v"
"WLSel<1421>v" ":643v"
"WLSel<1420>v" ":644v"
"WLSel<1419>v" ":645v"
"WLSel<1418>v" ":646v"
"WLSel<1417>v" ":647v"
"WLSel<1416>v" ":648v"
"WLSel<1415>v" ":649v"
"WLSel<1414>v" ":650v"
"WLSel<1413>v" ":651v"
"WLSel<1412>v" ":652v"
"WLSel<1411>v" ":653v"
"WLSel<1410>v" ":654v"
"WLSel<1409>v" ":655v"
"WLSel<1408>v" ":656v"
"WLSel<1407>v" ":657v"
"WLSel<1406>v" ":658v"
"WLSel<1405>v" ":659v"
"WLSel<1404>v" ":660v"
"WLSel<1403>v" ":661v"
"WLSel<1402>v" ":662v"
"WLSel<1401>v" ":663v"
"WLSel<1400>v" ":664v"
"WLSel<1399>v" ":665v"
"WLSel<1398>v" ":666v"
"WLSel<1397>v" ":667v"
"WLSel<1396>v" ":668v"
"WLSel<1395>v" ":669v"
"WLSel<1394>v" ":670v"
"WLSel<1393>v" ":671v"
"WLSel<1392>v" ":672v"
"WLSel<1391>v" ":673v"
"WLSel<1390>v" ":674v"
"WLSel<1389>v" ":675v"
"WLSel<1388>v" ":676v"
"WLSel<1387>v" ":677v"
"WLSel<1386>v" ":678v"
"WLSel<1385>v" ":679v"
"WLSel<1384>v" ":680v"
"WLSel<1383>v" ":681v"
"WLSel<1382>v" ":682v"
"WLSel<1381>v" ":683v"
"WLSel<1380>v" ":684v"
"WLSel<1379>v" ":685v"
"WLSel<1378>v" ":686v"
"WLSel<1377>v" ":687v"
"WLSel<1376>v" ":688v"
"WLSel<1375>v" ":689v"
"WLSel<1374>v" ":690v"
"WLSel<1373>v" ":691v"
"WLSel<1372>v" ":692v"
"WLSel<1371>v" ":693v"
"WLSel<1370>v" ":694v"
"WLSel<1369>v" ":695v"
"WLSel<1368>v" ":696v"
"WLSel<1367>v" ":697v"
"WLSel<1366>v" ":698v"
"WLSel<1365>v" ":699v"
"WLSel<1364>v" ":700v"
"WLSel<1363>v" ":701v"
"WLSel<1362>v" ":702v"
"WLSel<1361>v" ":703v"
"WLSel<1360>v" ":704v"
"WLSel<1359>v" ":705v"
"WLSel<1358>v" ":706v"
"WLSel<1357>v" ":707v"
"WLSel<1356>v" ":708v"
"WLSel<1355>v" ":709v"
"WLSel<1354>v" ":710v"
"WLSel<1353>v" ":711v"
"WLSel<1352>v" ":712v"
"WLSel<1351>v" ":713v"
"WLSel<1350>v" ":714v"
"WLSel<1349>v" ":715v"
"WLSel<1348>v" ":716v"
"WLSel<1347>v" ":717v"
"WLSel<1346>v" ":718v"
"WLSel<1345>v" ":719v"
"WLSel<1344>v" ":720v"
"WLSel<1343>v" ":721v"
"WLSel<1342>v" ":722v"
"WLSel<1341>v" ":723v"
"WLSel<1340>v" ":724v"
"WLSel<1339>v" ":725v"
"WLSel<1338>v" ":726v"
"WLSel<1337>v" ":727v"
"WLSel<1336>v" ":728v"
"WLSel<1335>v" ":729v"
"WLSel<1334>v" ":730v"
"WLSel<1333>v" ":731v"
"WLSel<1332>v" ":732v"
"WLSel<1331>v" ":733v"
"WLSel<1330>v" ":734v"
"WLSel<1329>v" ":735v"
"WLSel<1328>v" ":736v"
"WLSel<1327>v" ":737v"
"WLSel<1326>v" ":738v"
"WLSel<1325>v" ":739v"
"WLSel<1324>v" ":740v"
"WLSel<1323>v" ":741v"
"WLSel<1322>v" ":742v"
"WLSel<1321>v" ":743v"
"WLSel<1320>v" ":744v"
"WLSel<1319>v" ":745v"
"WLSel<1318>v" ":746v"
"WLSel<1317>v" ":747v"
"WLSel<1316>v" ":748v"
"WLSel<1315>v" ":749v"
"WLSel<1314>v" ":750v"
"WLSel<1313>v" ":751v"
"WLSel<1312>v" ":752v"
"WLSel<1311>v" ":753v"
"WLSel<1310>v" ":754v"
"WLSel<1309>v" ":755v"
"WLSel<1308>v" ":756v"
"WLSel<1307>v" ":757v"
"WLSel<1306>v" ":758v"
"WLSel<1305>v" ":759v"
"WLSel<1304>v" ":760v"
"WLSel<1303>v" ":761v"
"WLSel<1302>v" ":762v"
"WLSel<1301>v" ":763v"
"WLSel<1300>v" ":764v"
"WLSel<1299>v" ":765v"
"WLSel<1298>v" ":766v"
"WLSel<1297>v" ":767v"
"WLSel<1296>v" ":768v"
"WLSel<1295>v" ":769v"
"WLSel<1294>v" ":770v"
"WLSel<1293>v" ":771v"
"WLSel<1292>v" ":772v"
"WLSel<1291>v" ":773v"
"WLSel<1290>v" ":774v"
"WLSel<1289>v" ":775v"
"WLSel<1288>v" ":776v"
"WLSel<1287>v" ":777v"
"WLSel<1286>v" ":778v"
"WLSel<1285>v" ":779v"
"WLSel<1284>v" ":780v"
"WLSel<1283>v" ":781v"
"WLSel<1282>v" ":782v"
"WLSel<1281>v" ":783v"
"WLSel<1280>v" ":784v"
"WLSel<1279>v" ":785v"
"WLSel<1278>v" ":786v"
"WLSel<1277>v" ":787v"
"WLSel<1276>v" ":788v"
"WLSel<1275>v" ":789v"
"WLSel<1274>v" ":790v"
"WLSel<1273>v" ":791v"
"WLSel<1272>v" ":792v"
"WLSel<1271>v" ":793v"
"WLSel<1270>v" ":794v"
"WLSel<1269>v" ":795v"
"WLSel<1268>v" ":796v"
"WLSel<1267>v" ":797v"
"WLSel<1266>v" ":798v"
"WLSel<1265>v" ":799v"
"WLSel<1264>v" ":800v"
"WLSel<1263>v" ":801v"
"WLSel<1262>v" ":802v"
"WLSel<1261>v" ":803v"
"WLSel<1260>v" ":804v"
"WLSel<1259>v" ":805v"
"WLSel<1258>v" ":806v"
"WLSel<1257>v" ":807v"
"WLSel<1256>v" ":808v"
"WLSel<1255>v" ":809v"
"WLSel<1254>v" ":810v"
"WLSel<1253>v" ":811v"
"WLSel<1252>v" ":812v"
"WLSel<1251>v" ":813v"
"WLSel<1250>v" ":814v"
"WLSel<1249>v" ":815v"
"WLSel<1248>v" ":816v"
"WLSel<1247>v" ":817v"
"WLSel<1246>v" ":818v"
"WLSel<1245>v" ":819v"
"WLSel<1244>v" ":820v"
"WLSel<1243>v" ":821v"
"WLSel<1242>v" ":822v"
"WLSel<1241>v" ":823v"
"WLSel<1240>v" ":824v"
"WLSel<1239>v" ":825v"
"WLSel<1238>v" ":826v"
"WLSel<1237>v" ":827v"
"WLSel<1236>v" ":828v"
"WLSel<1235>v" ":829v"
"WLSel<1234>v" ":830v"
"WLSel<1233>v" ":831v"
"WLSel<1232>v" ":832v"
"WLSel<1231>v" ":833v"
"WLSel<1230>v" ":834v"
"WLSel<1229>v" ":835v"
"WLSel<1228>v" ":836v"
"WLSel<1227>v" ":837v"
"WLSel<1226>v" ":838v"
"WLSel<1225>v" ":839v"
"WLSel<1224>v" ":840v"
"WLSel<1223>v" ":841v"
"WLSel<1222>v" ":842v"
"WLSel<1221>v" ":843v"
"WLSel<1220>v" ":844v"
"WLSel<1219>v" ":845v"
"WLSel<1218>v" ":846v"
"WLSel<1217>v" ":847v"
"WLSel<1216>v" ":848v"
"WLSel<1215>v" ":849v"
"WLSel<1214>v" ":850v"
"WLSel<1213>v" ":851v"
"WLSel<1212>v" ":852v"
"WLSel<1211>v" ":853v"
"WLSel<1210>v" ":854v"
"WLSel<1209>v" ":855v"
"WLSel<1208>v" ":856v"
"WLSel<1207>v" ":857v"
"WLSel<1206>v" ":858v"
"WLSel<1205>v" ":859v"
"WLSel<1204>v" ":860v"
"WLSel<1203>v" ":861v"
"WLSel<1202>v" ":862v"
"WLSel<1201>v" ":863v"
"WLSel<1200>v" ":864v"
"WLSel<1199>v" ":865v"
"WLSel<1198>v" ":866v"
"WLSel<1197>v" ":867v"
"WLSel<1196>v" ":868v"
"WLSel<1195>v" ":869v"
"WLSel<1194>v" ":870v"
"WLSel<1193>v" ":871v"
"WLSel<1192>v" ":872v"
"WLSel<1191>v" ":873v"
"WLSel<1190>v" ":874v"
"WLSel<1189>v" ":875v"
"WLSel<1188>v" ":876v"
"WLSel<1187>v" ":877v"
"WLSel<1186>v" ":878v"
"WLSel<1185>v" ":879v"
"WLSel<1184>v" ":880v"
"WLSel<1183>v" ":881v"
"WLSel<1182>v" ":882v"
"WLSel<1181>v" ":883v"
"WLSel<1180>v" ":884v"
"WLSel<1179>v" ":885v"
"WLSel<1178>v" ":886v"
"WLSel<1177>v" ":887v"
"WLSel<1176>v" ":888v"
"WLSel<1175>v" ":889v"
"WLSel<1174>v" ":890v"
"WLSel<1173>v" ":891v"
"WLSel<1172>v" ":892v"
"WLSel<1171>v" ":893v"
"WLSel<1170>v" ":894v"
"WLSel<1169>v" ":895v"
"WLSel<1168>v" ":896v"
"WLSel<1167>v" ":897v"
"WLSel<1166>v" ":898v"
"WLSel<1165>v" ":899v"
"WLSel<1164>v" ":900v"
"WLSel<1163>v" ":901v"
"WLSel<1162>v" ":902v"
"WLSel<1161>v" ":903v"
"WLSel<1160>v" ":904v"
"WLSel<1159>v" ":905v"
"WLSel<1158>v" ":906v"
"WLSel<1157>v" ":907v"
"WLSel<1156>v" ":908v"
"WLSel<1155>v" ":909v"
"WLSel<1154>v" ":910v"
"WLSel<1153>v" ":911v"
"WLSel<1152>v" ":912v"
"WLSel<1151>v" ":913v"
"WLSel<1150>v" ":914v"
"WLSel<1149>v" ":915v"
"WLSel<1148>v" ":916v"
"WLSel<1147>v" ":917v"
"WLSel<1146>v" ":918v"
"WLSel<1145>v" ":919v"
"WLSel<1144>v" ":920v"
"WLSel<1143>v" ":921v"
"WLSel<1142>v" ":922v"
"WLSel<1141>v" ":923v"
"WLSel<1140>v" ":924v"
"WLSel<1139>v" ":925v"
"WLSel<1138>v" ":926v"
"WLSel<1137>v" ":927v"
"WLSel<1136>v" ":928v"
"WLSel<1135>v" ":929v"
"WLSel<1134>v" ":930v"
"WLSel<1133>v" ":931v"
"WLSel<1132>v" ":932v"
"WLSel<1131>v" ":933v"
"WLSel<1130>v" ":934v"
"WLSel<1129>v" ":935v"
"WLSel<1128>v" ":936v"
"WLSel<1127>v" ":937v"
"WLSel<1126>v" ":938v"
"WLSel<1125>v" ":939v"
"WLSel<1124>v" ":940v"
"WLSel<1123>v" ":941v"
"WLSel<1122>v" ":942v"
"WLSel<1121>v" ":943v"
"WLSel<1120>v" ":944v"
"WLSel<1119>v" ":945v"
"WLSel<1118>v" ":946v"
"WLSel<1117>v" ":947v"
"WLSel<1116>v" ":948v"
"WLSel<1115>v" ":949v"
"WLSel<1114>v" ":950v"
"WLSel<1113>v" ":951v"
"WLSel<1112>v" ":952v"
"WLSel<1111>v" ":953v"
"WLSel<1110>v" ":954v"
"WLSel<1109>v" ":955v"
"WLSel<1108>v" ":956v"
"WLSel<1107>v" ":957v"
"WLSel<1106>v" ":958v"
"WLSel<1105>v" ":959v"
"WLSel<1104>v" ":960v"
"WLSel<1103>v" ":961v"
"WLSel<1102>v" ":962v"
"WLSel<1101>v" ":963v"
"WLSel<1100>v" ":964v"
"WLSel<1099>v" ":965v"
"WLSel<1098>v" ":966v"
"WLSel<1097>v" ":967v"
"WLSel<1096>v" ":968v"
"WLSel<1095>v" ":969v"
"WLSel<1094>v" ":970v"
"WLSel<1093>v" ":971v"
"WLSel<1092>v" ":972v"
"WLSel<1091>v" ":973v"
"WLSel<1090>v" ":974v"
"WLSel<1089>v" ":975v"
"WLSel<1088>v" ":976v"
"WLSel<1087>v" ":977v"
"WLSel<1086>v" ":978v"
"WLSel<1085>v" ":979v"
"WLSel<1084>v" ":980v"
"WLSel<1083>v" ":981v"
"WLSel<1082>v" ":982v"
"WLSel<1081>v" ":983v"
"WLSel<1080>v" ":984v"
"WLSel<1079>v" ":985v"
"WLSel<1078>v" ":986v"
"WLSel<1077>v" ":987v"
"WLSel<1076>v" ":988v"
"WLSel<1075>v" ":989v"
"WLSel<1074>v" ":990v"
"WLSel<1073>v" ":991v"
"WLSel<1072>v" ":992v"
"WLSel<1071>v" ":993v"
"WLSel<1070>v" ":994v"
"WLSel<1069>v" ":995v"
"WLSel<1068>v" ":996v"
"WLSel<1067>v" ":997v"
"WLSel<1066>v" ":998v"
"WLSel<1065>v" ":999v"
"WLSel<1064>v" ":1000v"
"WLSel<1063>v" ":1001v"
"WLSel<1062>v" ":1002v"
"WLSel<1061>v" ":1003v"
"WLSel<1060>v" ":1004v"
"WLSel<1059>v" ":1005v"
"WLSel<1058>v" ":1006v"
"WLSel<1057>v" ":1007v"
"WLSel<1056>v" ":1008v"
"WLSel<1055>v" ":1009v"
"WLSel<1054>v" ":1010v"
"WLSel<1053>v" ":1011v"
"WLSel<1052>v" ":1012v"
"WLSel<1051>v" ":1013v"
"WLSel<1050>v" ":1014v"
"WLSel<1049>v" ":1015v"
"WLSel<1048>v" ":1016v"
"WLSel<1047>v" ":1017v"
"WLSel<1046>v" ":1018v"
"WLSel<1045>v" ":1019v"
"WLSel<1044>v" ":1020v"
"WLSel<1043>v" ":1021v"
"WLSel<1042>v" ":1022v"
"WLSel<1041>v" ":1023v"
"WLSel<1040>v" ":1024v"
"WLSel<1039>v" ":1025v"
"WLSel<1038>v" ":1026v"
"WLSel<1037>v" ":1027v"
"WLSel<1036>v" ":1028v"
"WLSel<1035>v" ":1029v"
"WLSel<1034>v" ":1030v"
"WLSel<1033>v" ":1031v"
"WLSel<1032>v" ":1032v"
"WLSel<1031>v" ":1033v"
"WLSel<1030>v" ":1034v"
"WLSel<1029>v" ":1035v"
"WLSel<1028>v" ":1036v"
"WLSel<1027>v" ":1037v"
"WLSel<1026>v" ":1038v"
"WLSel<1025>v" ":1039v"
"WLSel<1024>v" ":1040v"
"WLSel<1023>v" ":1041v"
"WLSel<1022>v" ":1042v"
"WLSel<1021>v" ":1043v"
"WLSel<1020>v" ":1044v"
"WLSel<1019>v" ":1045v"
"WLSel<1018>v" ":1046v"
"WLSel<1017>v" ":1047v"
"WLSel<1016>v" ":1048v"
"WLSel<1015>v" ":1049v"
"WLSel<1014>v" ":1050v"
"WLSel<1013>v" ":1051v"
"WLSel<1012>v" ":1052v"
"WLSel<1011>v" ":1053v"
"WLSel<1010>v" ":1054v"
"WLSel<1009>v" ":1055v"
"WLSel<1008>v" ":1056v"
"WLSel<1007>v" ":1057v"
"WLSel<1006>v" ":1058v"
"WLSel<1005>v" ":1059v"
"WLSel<1004>v" ":1060v"
"WLSel<1003>v" ":1061v"
"WLSel<1002>v" ":1062v"
"WLSel<1001>v" ":1063v"
"WLSel<1000>v" ":1064v"
"WLSel<999>v" ":1065v"
"WLSel<998>v" ":1066v"
"WLSel<997>v" ":1067v"
"WLSel<996>v" ":1068v"
"WLSel<995>v" ":1069v"
"WLSel<994>v" ":1070v"
"WLSel<993>v" ":1071v"
"WLSel<992>v" ":1072v"
"WLSel<991>v" ":1073v"
"WLSel<990>v" ":1074v"
"WLSel<989>v" ":1075v"
"WLSel<988>v" ":1076v"
"WLSel<987>v" ":1077v"
"WLSel<986>v" ":1078v"
"WLSel<985>v" ":1079v"
"WLSel<984>v" ":1080v"
"WLSel<983>v" ":1081v"
"WLSel<982>v" ":1082v"
"WLSel<981>v" ":1083v"
"WLSel<980>v" ":1084v"
"WLSel<979>v" ":1085v"
"WLSel<978>v" ":1086v"
"WLSel<977>v" ":1087v"
"WLSel<976>v" ":1088v"
"WLSel<975>v" ":1089v"
"WLSel<974>v" ":1090v"
"WLSel<973>v" ":1091v"
"WLSel<972>v" ":1092v"
"WLSel<971>v" ":1093v"
"WLSel<970>v" ":1094v"
"WLSel<969>v" ":1095v"
"WLSel<968>v" ":1096v"
"WLSel<967>v" ":1097v"
"WLSel<966>v" ":1098v"
"WLSel<965>v" ":1099v"
"WLSel<964>v" ":1100v"
"WLSel<963>v" ":1101v"
"WLSel<962>v" ":1102v"
"WLSel<961>v" ":1103v"
"WLSel<960>v" ":1104v"
"WLSel<959>v" ":1105v"
"WLSel<958>v" ":1106v"
"WLSel<957>v" ":1107v"
"WLSel<956>v" ":1108v"
"WLSel<955>v" ":1109v"
"WLSel<954>v" ":1110v"
"WLSel<953>v" ":1111v"
"WLSel<952>v" ":1112v"
"WLSel<951>v" ":1113v"
"WLSel<950>v" ":1114v"
"WLSel<949>v" ":1115v"
"WLSel<948>v" ":1116v"
"WLSel<947>v" ":1117v"
"WLSel<946>v" ":1118v"
"WLSel<945>v" ":1119v"
"WLSel<944>v" ":1120v"
"WLSel<943>v" ":1121v"
"WLSel<942>v" ":1122v"
"WLSel<941>v" ":1123v"
"WLSel<940>v" ":1124v"
"WLSel<939>v" ":1125v"
"WLSel<938>v" ":1126v"
"WLSel<937>v" ":1127v"
"WLSel<936>v" ":1128v"
"WLSel<935>v" ":1129v"
"WLSel<934>v" ":1130v"
"WLSel<933>v" ":1131v"
"WLSel<932>v" ":1132v"
"WLSel<931>v" ":1133v"
"WLSel<930>v" ":1134v"
"WLSel<929>v" ":1135v"
"WLSel<928>v" ":1136v"
"WLSel<927>v" ":1137v"
"WLSel<926>v" ":1138v"
"WLSel<925>v" ":1139v"
"WLSel<924>v" ":1140v"
"WLSel<923>v" ":1141v"
"WLSel<922>v" ":1142v"
"WLSel<921>v" ":1143v"
"WLSel<920>v" ":1144v"
"WLSel<919>v" ":1145v"
"WLSel<918>v" ":1146v"
"WLSel<917>v" ":1147v"
"WLSel<916>v" ":1148v"
"WLSel<915>v" ":1149v"
"WLSel<914>v" ":1150v"
"WLSel<913>v" ":1151v"
"WLSel<912>v" ":1152v"
"WLSel<911>v" ":1153v"
"WLSel<910>v" ":1154v"
"WLSel<909>v" ":1155v"
"WLSel<908>v" ":1156v"
"WLSel<907>v" ":1157v"
"WLSel<906>v" ":1158v"
"WLSel<905>v" ":1159v"
"WLSel<904>v" ":1160v"
"WLSel<903>v" ":1161v"
"WLSel<902>v" ":1162v"
"WLSel<901>v" ":1163v"
"WLSel<900>v" ":1164v"
"WLSel<899>v" ":1165v"
"WLSel<898>v" ":1166v"
"WLSel<897>v" ":1167v"
"WLSel<896>v" ":1168v"
"WLSel<895>v" ":1169v"
"WLSel<894>v" ":1170v"
"WLSel<893>v" ":1171v"
"WLSel<892>v" ":1172v"
"WLSel<891>v" ":1173v"
"WLSel<890>v" ":1174v"
"WLSel<889>v" ":1175v"
"WLSel<888>v" ":1176v"
"WLSel<887>v" ":1177v"
"WLSel<886>v" ":1178v"
"WLSel<885>v" ":1179v"
"WLSel<884>v" ":1180v"
"WLSel<883>v" ":1181v"
"WLSel<882>v" ":1182v"
"WLSel<881>v" ":1183v"
"WLSel<880>v" ":1184v"
"WLSel<879>v" ":1185v"
"WLSel<878>v" ":1186v"
"WLSel<877>v" ":1187v"
"WLSel<876>v" ":1188v"
"WLSel<875>v" ":1189v"
"WLSel<874>v" ":1190v"
"WLSel<873>v" ":1191v"
"WLSel<872>v" ":1192v"
"WLSel<871>v" ":1193v"
"WLSel<870>v" ":1194v"
"WLSel<869>v" ":1195v"
"WLSel<868>v" ":1196v"
"WLSel<867>v" ":1197v"
"WLSel<866>v" ":1198v"
"WLSel<865>v" ":1199v"
"WLSel<864>v" ":1200v"
"WLSel<863>v" ":1201v"
"WLSel<862>v" ":1202v"
"WLSel<861>v" ":1203v"
"WLSel<860>v" ":1204v"
"WLSel<859>v" ":1205v"
"WLSel<858>v" ":1206v"
"WLSel<857>v" ":1207v"
"WLSel<856>v" ":1208v"
"WLSel<855>v" ":1209v"
"WLSel<854>v" ":1210v"
"WLSel<853>v" ":1211v"
"WLSel<852>v" ":1212v"
"WLSel<851>v" ":1213v"
"WLSel<850>v" ":1214v"
"WLSel<849>v" ":1215v"
"WLSel<848>v" ":1216v"
"WLSel<847>v" ":1217v"
"WLSel<846>v" ":1218v"
"WLSel<845>v" ":1219v"
"WLSel<844>v" ":1220v"
"WLSel<843>v" ":1221v"
"WLSel<842>v" ":1222v"
"WLSel<841>v" ":1223v"
"WLSel<840>v" ":1224v"
"WLSel<839>v" ":1225v"
"WLSel<838>v" ":1226v"
"WLSel<837>v" ":1227v"
"WLSel<836>v" ":1228v"
"WLSel<835>v" ":1229v"
"WLSel<834>v" ":1230v"
"WLSel<833>v" ":1231v"
"WLSel<832>v" ":1232v"
"WLSel<831>v" ":1233v"
"WLSel<830>v" ":1234v"
"WLSel<829>v" ":1235v"
"WLSel<828>v" ":1236v"
"WLSel<827>v" ":1237v"
"WLSel<826>v" ":1238v"
"WLSel<825>v" ":1239v"
"WLSel<824>v" ":1240v"
"WLSel<823>v" ":1241v"
"WLSel<822>v" ":1242v"
"WLSel<821>v" ":1243v"
"WLSel<820>v" ":1244v"
"WLSel<819>v" ":1245v"
"WLSel<818>v" ":1246v"
"WLSel<817>v" ":1247v"
"WLSel<816>v" ":1248v"
"WLSel<815>v" ":1249v"
"WLSel<814>v" ":1250v"
"WLSel<813>v" ":1251v"
"WLSel<812>v" ":1252v"
"WLSel<811>v" ":1253v"
"WLSel<810>v" ":1254v"
"WLSel<809>v" ":1255v"
"WLSel<808>v" ":1256v"
"WLSel<807>v" ":1257v"
"WLSel<806>v" ":1258v"
"WLSel<805>v" ":1259v"
"WLSel<804>v" ":1260v"
"WLSel<803>v" ":1261v"
"WLSel<802>v" ":1262v"
"WLSel<801>v" ":1263v"
"WLSel<800>v" ":1264v"
"WLSel<799>v" ":1265v"
"WLSel<798>v" ":1266v"
"WLSel<797>v" ":1267v"
"WLSel<796>v" ":1268v"
"WLSel<795>v" ":1269v"
"WLSel<794>v" ":1270v"
"WLSel<793>v" ":1271v"
"WLSel<792>v" ":1272v"
"WLSel<791>v" ":1273v"
"WLSel<790>v" ":1274v"
"WLSel<789>v" ":1275v"
"WLSel<788>v" ":1276v"
"WLSel<787>v" ":1277v"
"WLSel<786>v" ":1278v"
"WLSel<785>v" ":1279v"
"WLSel<784>v" ":1280v"
"WLSel<783>v" ":1281v"
"WLSel<782>v" ":1282v"
"WLSel<781>v" ":1283v"
"WLSel<780>v" ":1284v"
"WLSel<779>v" ":1285v"
"WLSel<778>v" ":1286v"
"WLSel<777>v" ":1287v"
"WLSel<776>v" ":1288v"