HEADER
"PSFversion" "1.00"
"design" "(\"project_common\" \"INV_tb\" \"schematic\" \"\")"
"simulator" "spectre"
"temperature" "27"
"host" ""
"date" "Dec 21 21:34:19 2022"
"title" ""
"analysisList" "()"
END
