HEADER
"PSFversion" "1.00"
"I0n" "BUF"
"Av" ":1v"
"Zv" ":2v"
