HEADER
"PSFversion" "1.00"
"I2<1>n I2<0>n" "Post_L6_64t8"
"Sel0<1>v" ":1v"
"Sel0<0>v" ":2v"
"Sel1<1>v" ":3v"
"Sel1<0>v" ":4v"
"Sel2<1>v" ":5v"
"Sel2<0>v" ":6v"
"Sel3<1>v" ":7v"
"Sel3<0>v" ":8v"
"Sel4<1>v" ":9v"
"Sel4<0>v" ":10v"
"Sel5<1>v" ":11v"
"Sel5<0>v" ":12v"
"Sel6<1>v" ":13v"
"Sel6<0>v" ":14v"
"Sel7v" ":15v"
"WL<1023>v" ":16v"
"WL<1022>v" ":17v"
"WL<1021>v" ":18v"
"WL<1020>v" ":19v"
"WL<1019>v" ":20v"
"WL<1018>v" ":21v"
"WL<1017>v" ":22v"
"WL<1016>v" ":23v"
"WL<1015>v" ":24v"
"WL<1014>v" ":25v"
"WL<1013>v" ":26v"
"WL<1012>v" ":27v"
"WL<1011>v" ":28v"
"WL<1010>v" ":29v"
"WL<1009>v" ":30v"
"WL<1008>v" ":31v"
"WL<1007>v" ":32v"
"WL<1006>v" ":33v"
"WL<1005>v" ":34v"
"WL<1004>v" ":35v"
"WL<1003>v" ":36v"
"WL<1002>v" ":37v"
"WL<1001>v" ":38v"
"WL<1000>v" ":39v"
"WL<999>v" ":40v"
"WL<998>v" ":41v"
"WL<997>v" ":42v"
"WL<996>v" ":43v"
"WL<995>v" ":44v"
"WL<994>v" ":45v"
"WL<993>v" ":46v"
"WL<992>v" ":47v"
"WL<991>v" ":48v"
"WL<990>v" ":49v"
"WL<989>v" ":50v"
"WL<988>v" ":51v"
"WL<987>v" ":52v"
"WL<986>v" ":53v"
"WL<985>v" ":54v"
"WL<984>v" ":55v"
"WL<983>v" ":56v"
"WL<982>v" ":57v"
"WL<981>v" ":58v"
"WL<980>v" ":59v"
"WL<979>v" ":60v"
"WL<978>v" ":61v"
"WL<977>v" ":62v"
"WL<976>v" ":63v"
"WL<975>v" ":64v"
"WL<974>v" ":65v"
"WL<973>v" ":66v"
"WL<972>v" ":67v"
"WL<971>v" ":68v"
"WL<970>v" ":69v"
"WL<969>v" ":70v"
"WL<968>v" ":71v"
"WL<967>v" ":72v"
"WL<966>v" ":73v"
"WL<965>v" ":74v"
"WL<964>v" ":75v"
"WL<963>v" ":76v"
"WL<962>v" ":77v"
"WL<961>v" ":78v"
"WL<960>v" ":79v"
"WL<959>v" ":80v"
"WL<958>v" ":81v"
"WL<957>v" ":82v"
"WL<956>v" ":83v"
"WL<955>v" ":84v"
"WL<954>v" ":85v"
"WL<953>v" ":86v"
"WL<952>v" ":87v"
"WL<951>v" ":88v"
"WL<950>v" ":89v"
"WL<949>v" ":90v"
"WL<948>v" ":91v"
"WL<947>v" ":92v"
"WL<946>v" ":93v"
"WL<945>v" ":94v"
"WL<944>v" ":95v"
"WL<943>v" ":96v"
"WL<942>v" ":97v"
"WL<941>v" ":98v"
"WL<940>v" ":99v"
"WL<939>v" ":100v"
"WL<938>v" ":101v"
"WL<937>v" ":102v"
"WL<936>v" ":103v"
"WL<935>v" ":104v"
"WL<934>v" ":105v"
"WL<933>v" ":106v"
"WL<932>v" ":107v"
"WL<931>v" ":108v"
"WL<930>v" ":109v"
"WL<929>v" ":110v"
"WL<928>v" ":111v"
"WL<927>v" ":112v"
"WL<926>v" ":113v"
"WL<925>v" ":114v"
"WL<924>v" ":115v"
"WL<923>v" ":116v"
"WL<922>v" ":117v"
"WL<921>v" ":118v"
"WL<920>v" ":119v"
"WL<919>v" ":120v"
"WL<918>v" ":121v"
"WL<917>v" ":122v"
"WL<916>v" ":123v"
"WL<915>v" ":124v"
"WL<914>v" ":125v"
"WL<913>v" ":126v"
"WL<912>v" ":127v"
"WL<911>v" ":128v"
"WL<910>v" ":129v"
"WL<909>v" ":130v"
"WL<908>v" ":131v"
"WL<907>v" ":132v"
"WL<906>v" ":133v"
"WL<905>v" ":134v"
"WL<904>v" ":135v"
"WL<903>v" ":136v"
"WL<902>v" ":137v"
"WL<901>v" ":138v"
"WL<900>v" ":139v"
"WL<899>v" ":140v"
"WL<898>v" ":141v"
"WL<897>v" ":142v"
"WL<896>v" ":143v"
"WL<895>v" ":144v"
"WL<894>v" ":145v"
"WL<893>v" ":146v"
"WL<892>v" ":147v"
"WL<891>v" ":148v"
"WL<890>v" ":149v"
"WL<889>v" ":150v"
"WL<888>v" ":151v"
"WL<887>v" ":152v"
"WL<886>v" ":153v"
"WL<885>v" ":154v"
"WL<884>v" ":155v"
"WL<883>v" ":156v"
"WL<882>v" ":157v"
"WL<881>v" ":158v"
"WL<880>v" ":159v"
"WL<879>v" ":160v"
"WL<878>v" ":161v"
"WL<877>v" ":162v"
"WL<876>v" ":163v"
"WL<875>v" ":164v"
"WL<874>v" ":165v"
"WL<873>v" ":166v"
"WL<872>v" ":167v"
"WL<871>v" ":168v"
"WL<870>v" ":169v"
"WL<869>v" ":170v"
"WL<868>v" ":171v"
"WL<867>v" ":172v"
"WL<866>v" ":173v"
"WL<865>v" ":174v"
"WL<864>v" ":175v"
"WL<863>v" ":176v"
"WL<862>v" ":177v"
"WL<861>v" ":178v"
"WL<860>v" ":179v"
"WL<859>v" ":180v"
"WL<858>v" ":181v"
"WL<857>v" ":182v"
"WL<856>v" ":183v"
"WL<855>v" ":184v"
"WL<854>v" ":185v"
"WL<853>v" ":186v"
"WL<852>v" ":187v"
"WL<851>v" ":188v"
"WL<850>v" ":189v"
"WL<849>v" ":190v"
"WL<848>v" ":191v"
"WL<847>v" ":192v"
"WL<846>v" ":193v"
"WL<845>v" ":194v"
"WL<844>v" ":195v"
"WL<843>v" ":196v"
"WL<842>v" ":197v"
"WL<841>v" ":198v"
"WL<840>v" ":199v"
"WL<839>v" ":200v"
"WL<838>v" ":201v"
"WL<837>v" ":202v"
"WL<836>v" ":203v"
"WL<835>v" ":204v"
"WL<834>v" ":205v"
"WL<833>v" ":206v"
"WL<832>v" ":207v"
"WL<831>v" ":208v"
"WL<830>v" ":209v"
"WL<829>v" ":210v"
"WL<828>v" ":211v"
"WL<827>v" ":212v"
"WL<826>v" ":213v"
"WL<825>v" ":214v"
"WL<824>v" ":215v"
"WL<823>v" ":216v"
"WL<822>v" ":217v"
"WL<821>v" ":218v"
"WL<820>v" ":219v"
"WL<819>v" ":220v"
"WL<818>v" ":221v"
"WL<817>v" ":222v"
"WL<816>v" ":223v"
"WL<815>v" ":224v"
"WL<814>v" ":225v"
"WL<813>v" ":226v"
"WL<812>v" ":227v"
"WL<811>v" ":228v"
"WL<810>v" ":229v"
"WL<809>v" ":230v"
"WL<808>v" ":231v"
"WL<807>v" ":232v"
"WL<806>v" ":233v"
"WL<805>v" ":234v"
"WL<804>v" ":235v"
"WL<803>v" ":236v"
"WL<802>v" ":237v"
"WL<801>v" ":238v"
"WL<800>v" ":239v"
"WL<799>v" ":240v"
"WL<798>v" ":241v"
"WL<797>v" ":242v"
"WL<796>v" ":243v"
"WL<795>v" ":244v"
"WL<794>v" ":245v"
"WL<793>v" ":246v"
"WL<792>v" ":247v"
"WL<791>v" ":248v"
"WL<790>v" ":249v"
"WL<789>v" ":250v"
"WL<788>v" ":251v"
"WL<787>v" ":252v"
"WL<786>v" ":253v"
"WL<785>v" ":254v"
"WL<784>v" ":255v"
"WL<783>v" ":256v"
"WL<782>v" ":257v"
"WL<781>v" ":258v"
"WL<780>v" ":259v"
"WL<779>v" ":260v"
"WL<778>v" ":261v"
"WL<777>v" ":262v"
"WL<776>v" ":263v"
"WL<775>v" ":264v"
"WL<774>v" ":265v"
"WL<773>v" ":266v"
"WL<772>v" ":267v"
"WL<771>v" ":268v"
"WL<770>v" ":269v"
"WL<769>v" ":270v"
"WL<768>v" ":271v"
"WL<767>v" ":272v"
"WL<766>v" ":273v"
"WL<765>v" ":274v"
"WL<764>v" ":275v"
"WL<763>v" ":276v"
"WL<762>v" ":277v"
"WL<761>v" ":278v"
"WL<760>v" ":279v"
"WL<759>v" ":280v"
"WL<758>v" ":281v"
"WL<757>v" ":282v"
"WL<756>v" ":283v"
"WL<755>v" ":284v"
"WL<754>v" ":285v"
"WL<753>v" ":286v"
"WL<752>v" ":287v"
"WL<751>v" ":288v"
"WL<750>v" ":289v"
"WL<749>v" ":290v"
"WL<748>v" ":291v"
"WL<747>v" ":292v"
"WL<746>v" ":293v"
"WL<745>v" ":294v"
"WL<744>v" ":295v"
"WL<743>v" ":296v"
"WL<742>v" ":297v"
"WL<741>v" ":298v"
"WL<740>v" ":299v"
"WL<739>v" ":300v"
"WL<738>v" ":301v"
"WL<737>v" ":302v"
"WL<736>v" ":303v"
"WL<735>v" ":304v"
"WL<734>v" ":305v"
"WL<733>v" ":306v"
"WL<732>v" ":307v"
"WL<731>v" ":308v"
"WL<730>v" ":309v"
"WL<729>v" ":310v"
"WL<728>v" ":311v"
"WL<727>v" ":312v"
"WL<726>v" ":313v"
"WL<725>v" ":314v"
"WL<724>v" ":315v"
"WL<723>v" ":316v"
"WL<722>v" ":317v"
"WL<721>v" ":318v"
"WL<720>v" ":319v"
"WL<719>v" ":320v"
"WL<718>v" ":321v"
"WL<717>v" ":322v"
"WL<716>v" ":323v"
"WL<715>v" ":324v"
"WL<714>v" ":325v"
"WL<713>v" ":326v"
"WL<712>v" ":327v"
"WL<711>v" ":328v"
"WL<710>v" ":329v"
"WL<709>v" ":330v"
"WL<708>v" ":331v"
"WL<707>v" ":332v"
"WL<706>v" ":333v"
"WL<705>v" ":334v"
"WL<704>v" ":335v"
"WL<703>v" ":336v"
"WL<702>v" ":337v"
"WL<701>v" ":338v"
"WL<700>v" ":339v"
"WL<699>v" ":340v"
"WL<698>v" ":341v"
"WL<697>v" ":342v"
"WL<696>v" ":343v"
"WL<695>v" ":344v"
"WL<694>v" ":345v"
"WL<693>v" ":346v"
"WL<692>v" ":347v"
"WL<691>v" ":348v"
"WL<690>v" ":349v"
"WL<689>v" ":350v"
"WL<688>v" ":351v"
"WL<687>v" ":352v"
"WL<686>v" ":353v"
"WL<685>v" ":354v"
"WL<684>v" ":355v"
"WL<683>v" ":356v"
"WL<682>v" ":357v"
"WL<681>v" ":358v"
"WL<680>v" ":359v"
"WL<679>v" ":360v"
"WL<678>v" ":361v"
"WL<677>v" ":362v"
"WL<676>v" ":363v"
"WL<675>v" ":364v"
"WL<674>v" ":365v"
"WL<673>v" ":366v"
"WL<672>v" ":367v"
"WL<671>v" ":368v"
"WL<670>v" ":369v"
"WL<669>v" ":370v"
"WL<668>v" ":371v"
"WL<667>v" ":372v"
"WL<666>v" ":373v"
"WL<665>v" ":374v"
"WL<664>v" ":375v"
"WL<663>v" ":376v"
"WL<662>v" ":377v"
"WL<661>v" ":378v"
"WL<660>v" ":379v"
"WL<659>v" ":380v"
"WL<658>v" ":381v"
"WL<657>v" ":382v"
"WL<656>v" ":383v"
"WL<655>v" ":384v"
"WL<654>v" ":385v"
"WL<653>v" ":386v"
"WL<652>v" ":387v"
"WL<651>v" ":388v"
"WL<650>v" ":389v"
"WL<649>v" ":390v"
"WL<648>v" ":391v"
"WL<647>v" ":392v"
"WL<646>v" ":393v"
"WL<645>v" ":394v"
"WL<644>v" ":395v"
"WL<643>v" ":396v"
"WL<642>v" ":397v"
"WL<641>v" ":398v"
"WL<640>v" ":399v"
"WL<639>v" ":400v"
"WL<638>v" ":401v"
"WL<637>v" ":402v"
"WL<636>v" ":403v"
"WL<635>v" ":404v"
"WL<634>v" ":405v"
"WL<633>v" ":406v"
"WL<632>v" ":407v"
"WL<631>v" ":408v"
"WL<630>v" ":409v"
"WL<629>v" ":410v"
"WL<628>v" ":411v"
"WL<627>v" ":412v"
"WL<626>v" ":413v"
"WL<625>v" ":414v"
"WL<624>v" ":415v"
"WL<623>v" ":416v"
"WL<622>v" ":417v"
"WL<621>v" ":418v"
"WL<620>v" ":419v"
"WL<619>v" ":420v"
"WL<618>v" ":421v"
"WL<617>v" ":422v"
"WL<616>v" ":423v"
"WL<615>v" ":424v"
"WL<614>v" ":425v"
"WL<613>v" ":426v"
"WL<612>v" ":427v"
"WL<611>v" ":428v"
"WL<610>v" ":429v"
"WL<609>v" ":430v"
"WL<608>v" ":431v"
"WL<607>v" ":432v"
"WL<606>v" ":433v"
"WL<605>v" ":434v"
"WL<604>v" ":435v"
"WL<603>v" ":436v"
"WL<602>v" ":437v"
"WL<601>v" ":438v"
"WL<600>v" ":439v"
"WL<599>v" ":440v"
"WL<598>v" ":441v"
"WL<597>v" ":442v"
"WL<596>v" ":443v"
"WL<595>v" ":444v"
"WL<594>v" ":445v"
"WL<593>v" ":446v"
"WL<592>v" ":447v"
"WL<591>v" ":448v"
"WL<590>v" ":449v"
"WL<589>v" ":450v"
"WL<588>v" ":451v"
"WL<587>v" ":452v"
"WL<586>v" ":453v"
"WL<585>v" ":454v"
"WL<584>v" ":455v"
"WL<583>v" ":456v"
"WL<582>v" ":457v"
"WL<581>v" ":458v"
"WL<580>v" ":459v"
"WL<579>v" ":460v"
"WL<578>v" ":461v"
"WL<577>v" ":462v"
"WL<576>v" ":463v"
"WL<575>v" ":464v"
"WL<574>v" ":465v"
"WL<573>v" ":466v"
"WL<572>v" ":467v"
"WL<571>v" ":468v"
"WL<570>v" ":469v"
"WL<569>v" ":470v"
"WL<568>v" ":471v"
"WL<567>v" ":472v"
"WL<566>v" ":473v"
"WL<565>v" ":474v"
"WL<564>v" ":475v"
"WL<563>v" ":476v"
"WL<562>v" ":477v"
"WL<561>v" ":478v"
"WL<560>v" ":479v"
"WL<559>v" ":480v"
"WL<558>v" ":481v"
"WL<557>v" ":482v"
"WL<556>v" ":483v"
"WL<555>v" ":484v"
"WL<554>v" ":485v"
"WL<553>v" ":486v"
"WL<552>v" ":487v"
"WL<551>v" ":488v"
"WL<550>v" ":489v"
"WL<549>v" ":490v"
"WL<548>v" ":491v"
"WL<547>v" ":492v"
"WL<546>v" ":493v"
"WL<545>v" ":494v"
"WL<544>v" ":495v"
"WL<543>v" ":496v"
"WL<542>v" ":497v"
"WL<541>v" ":498v"
"WL<540>v" ":499v"
"WL<539>v" ":500v"
"WL<538>v" ":501v"
"WL<537>v" ":502v"
"WL<536>v" ":503v"
"WL<535>v" ":504v"
"WL<534>v" ":505v"
"WL<533>v" ":506v"
"WL<532>v" ":507v"
"WL<531>v" ":508v"
"WL<530>v" ":509v"
"WL<529>v" ":510v"
"WL<528>v" ":511v"
"WL<527>v" ":512v"
"WL<526>v" ":513v"
"WL<525>v" ":514v"
"WL<524>v" ":515v"
"WL<523>v" ":516v"
"WL<522>v" ":517v"
"WL<521>v" ":518v"
"WL<520>v" ":519v"
"WL<519>v" ":520v"
"WL<518>v" ":521v"
"WL<517>v" ":522v"
"WL<516>v" ":523v"
"WL<515>v" ":524v"
"WL<514>v" ":525v"
"WL<513>v" ":526v"
"WL<512>v" ":527v"
"WL<511>v" ":528v"
"WL<510>v" ":529v"
"WL<509>v" ":530v"
"WL<508>v" ":531v"
"WL<507>v" ":532v"
"WL<506>v" ":533v"
"WL<505>v" ":534v"
"WL<504>v" ":535v"
"WL<503>v" ":536v"
"WL<502>v" ":537v"
"WL<501>v" ":538v"
"WL<500>v" ":539v"
"WL<499>v" ":540v"
"WL<498>v" ":541v"
"WL<497>v" ":542v"
"WL<496>v" ":543v"
"WL<495>v" ":544v"
"WL<494>v" ":545v"
"WL<493>v" ":546v"
"WL<492>v" ":547v"
"WL<491>v" ":548v"
"WL<490>v" ":549v"
"WL<489>v" ":550v"
"WL<488>v" ":551v"
"WL<487>v" ":552v"
"WL<486>v" ":553v"
"WL<485>v" ":554v"
"WL<484>v" ":555v"
"WL<483>v" ":556v"
"WL<482>v" ":557v"
"WL<481>v" ":558v"
"WL<480>v" ":559v"
"WL<479>v" ":560v"
"WL<478>v" ":561v"
"WL<477>v" ":562v"
"WL<476>v" ":563v"
"WL<475>v" ":564v"
"WL<474>v" ":565v"
"WL<473>v" ":566v"
"WL<472>v" ":567v"
"WL<471>v" ":568v"
"WL<470>v" ":569v"
"WL<469>v" ":570v"
"WL<468>v" ":571v"
"WL<467>v" ":572v"
"WL<466>v" ":573v"
"WL<465>v" ":574v"
"WL<464>v" ":575v"
"WL<463>v" ":576v"
"WL<462>v" ":577v"
"WL<461>v" ":578v"
"WL<460>v" ":579v"
"WL<459>v" ":580v"
"WL<458>v" ":581v"
"WL<457>v" ":582v"
"WL<456>v" ":583v"
"WL<455>v" ":584v"
"WL<454>v" ":585v"
"WL<453>v" ":586v"
"WL<452>v" ":587v"
"WL<451>v" ":588v"
"WL<450>v" ":589v"
"WL<449>v" ":590v"
"WL<448>v" ":591v"
"WL<447>v" ":592v"
"WL<446>v" ":593v"
"WL<445>v" ":594v"
"WL<444>v" ":595v"
"WL<443>v" ":596v"
"WL<442>v" ":597v"
"WL<441>v" ":598v"
"WL<440>v" ":599v"
"WL<439>v" ":600v"
"WL<438>v" ":601v"
"WL<437>v" ":602v"
"WL<436>v" ":603v"
"WL<435>v" ":604v"
"WL<434>v" ":605v"
"WL<433>v" ":606v"
"WL<432>v" ":607v"
"WL<431>v" ":608v"
"WL<430>v" ":609v"
"WL<429>v" ":610v"
"WL<428>v" ":611v"
"WL<427>v" ":612v"
"WL<426>v" ":613v"
"WL<425>v" ":614v"
"WL<424>v" ":615v"
"WL<423>v" ":616v"
"WL<422>v" ":617v"
"WL<421>v" ":618v"
"WL<420>v" ":619v"
"WL<419>v" ":620v"
"WL<418>v" ":621v"
"WL<417>v" ":622v"
"WL<416>v" ":623v"
"WL<415>v" ":624v"
"WL<414>v" ":625v"
"WL<413>v" ":626v"
"WL<412>v" ":627v"
"WL<411>v" ":628v"
"WL<410>v" ":629v"
"WL<409>v" ":630v"
"WL<408>v" ":631v"
"WL<407>v" ":632v"
"WL<406>v" ":633v"
"WL<405>v" ":634v"
"WL<404>v" ":635v"
"WL<403>v" ":636v"
"WL<402>v" ":637v"
"WL<401>v" ":638v"
"WL<400>v" ":639v"
"WL<399>v" ":640v"
"WL<398>v" ":641v"
"WL<397>v" ":642v"
"WL<396>v" ":643v"
"WL<395>v" ":644v"
"WL<394>v" ":645v"
"WL<393>v" ":646v"
"WL<392>v" ":647v"
"WL<391>v" ":648v"
"WL<390>v" ":649v"
"WL<389>v" ":650v"
"WL<388>v" ":651v"
"WL<387>v" ":652v"
"WL<386>v" ":653v"
"WL<385>v" ":654v"
"WL<384>v" ":655v"
"WL<383>v" ":656v"
"WL<382>v" ":657v"
"WL<381>v" ":658v"
"WL<380>v" ":659v"
"WL<379>v" ":660v"
"WL<378>v" ":661v"
"WL<377>v" ":662v"
"WL<376>v" ":663v"
"WL<375>v" ":664v"
"WL<374>v" ":665v"
"WL<373>v" ":666v"
"WL<372>v" ":667v"
"WL<371>v" ":668v"
"WL<370>v" ":669v"
"WL<369>v" ":670v"
"WL<368>v" ":671v"
"WL<367>v" ":672v"
"WL<366>v" ":673v"
"WL<365>v" ":674v"
"WL<364>v" ":675v"
"WL<363>v" ":676v"
"WL<362>v" ":677v"
"WL<361>v" ":678v"
"WL<360>v" ":679v"
"WL<359>v" ":680v"
"WL<358>v" ":681v"
"WL<357>v" ":682v"
"WL<356>v" ":683v"
"WL<355>v" ":684v"
"WL<354>v" ":685v"
"WL<353>v" ":686v"
"WL<352>v" ":687v"
"WL<351>v" ":688v"
"WL<350>v" ":689v"
"WL<349>v" ":690v"
"WL<348>v" ":691v"
"WL<347>v" ":692v"
"WL<346>v" ":693v"
"WL<345>v" ":694v"
"WL<344>v" ":695v"
"WL<343>v" ":696v"
"WL<342>v" ":697v"
"WL<341>v" ":698v"
"WL<340>v" ":699v"
"WL<339>v" ":700v"
"WL<338>v" ":701v"
"WL<337>v" ":702v"
"WL<336>v" ":703v"
"WL<335>v" ":704v"
"WL<334>v" ":705v"
"WL<333>v" ":706v"
"WL<332>v" ":707v"
"WL<331>v" ":708v"
"WL<330>v" ":709v"
"WL<329>v" ":710v"
"WL<328>v" ":711v"
"WL<327>v" ":712v"
"WL<326>v" ":713v"
"WL<325>v" ":714v"
"WL<324>v" ":715v"
"WL<323>v" ":716v"
"WL<322>v" ":717v"
"WL<321>v" ":718v"
"WL<320>v" ":719v"
"WL<319>v" ":720v"
"WL<318>v" ":721v"
"WL<317>v" ":722v"
"WL<316>v" ":723v"
"WL<315>v" ":724v"
"WL<314>v" ":725v"
"WL<313>v" ":726v"
"WL<312>v" ":727v"
"WL<311>v" ":728v"
"WL<310>v" ":729v"
"WL<309>v" ":730v"
"WL<308>v" ":731v"
"WL<307>v" ":732v"
"WL<306>v" ":733v"
"WL<305>v" ":734v"
"WL<304>v" ":735v"
"WL<303>v" ":736v"
"WL<302>v" ":737v"
"WL<301>v" ":738v"
"WL<300>v" ":739v"
"WL<299>v" ":740v"
"WL<298>v" ":741v"
"WL<297>v" ":742v"
"WL<296>v" ":743v"
"WL<295>v" ":744v"
"WL<294>v" ":745v"
"WL<293>v" ":746v"
"WL<292>v" ":747v"
"WL<291>v" ":748v"
"WL<290>v" ":749v"
"WL<289>v" ":750v"
"WL<288>v" ":751v"
"WL<287>v" ":752v"
"WL<286>v" ":753v"
"WL<285>v" ":754v"
"WL<284>v" ":755v"
"WL<283>v" ":756v"
"WL<282>v" ":757v"
"WL<281>v" ":758v"
"WL<280>v" ":759v"
"WL<279>v" ":760v"
"WL<278>v" ":761v"
"WL<277>v" ":762v"
"WL<276>v" ":763v"
"WL<275>v" ":764v"
"WL<274>v" ":765v"
"WL<273>v" ":766v"
"WL<272>v" ":767v"
"WL<271>v" ":768v"
"WL<270>v" ":769v"
"WL<269>v" ":770v"
"WL<268>v" ":771v"
"WL<267>v" ":772v"
"WL<266>v" ":773v"
"WL<265>v" ":774v"
"WL<264>v" ":775v"
"WL<263>v" ":776v"
"WL<262>v" ":777v"
"WL<261>v" ":778v"
"WL<260>v" ":779v"
"WL<259>v" ":780v"
"WL<258>v" ":781v"
"WL<257>v" ":782v"
"WL<256>v" ":783v"
"WL<255>v" ":784v"
"WL<254>v" ":785v"
"WL<253>v" ":786v"
"WL<252>v" ":787v"
"WL<251>v" ":788v"
"WL<250>v" ":789v"
"WL<249>v" ":790v"
"WL<248>v" ":791v"
"WL<247>v" ":792v"
"WL<246>v" ":793v"
"WL<245>v" ":794v"
"WL<244>v" ":795v"
"WL<243>v" ":796v"
"WL<242>v" ":797v"
"WL<241>v" ":798v"
"WL<240>v" ":799v"
"WL<239>v" ":800v"
"WL<238>v" ":801v"
"WL<237>v" ":802v"
"WL<236>v" ":803v"
"WL<235>v" ":804v"
"WL<234>v" ":805v"
"WL<233>v" ":806v"
"WL<232>v" ":807v"
"WL<231>v" ":808v"
"WL<230>v" ":809v"
"WL<229>v" ":810v"
"WL<228>v" ":811v"
"WL<227>v" ":812v"
"WL<226>v" ":813v"
"WL<225>v" ":814v"
"WL<224>v" ":815v"
"WL<223>v" ":816v"
"WL<222>v" ":817v"
"WL<221>v" ":818v"
"WL<220>v" ":819v"
"WL<219>v" ":820v"
"WL<218>v" ":821v"
"WL<217>v" ":822v"
"WL<216>v" ":823v"
"WL<215>v" ":824v"
"WL<214>v" ":825v"
"WL<213>v" ":826v"
"WL<212>v" ":827v"
"WL<211>v" ":828v"
"WL<210>v" ":829v"
"WL<209>v" ":830v"
"WL<208>v" ":831v"
"WL<207>v" ":832v"
"WL<206>v" ":833v"
"WL<205>v" ":834v"
"WL<204>v" ":835v"
"WL<203>v" ":836v"
"WL<202>v" ":837v"
"WL<201>v" ":838v"
"WL<200>v" ":839v"
"WL<199>v" ":840v"
"WL<198>v" ":841v"
"WL<197>v" ":842v"
"WL<196>v" ":843v"
"WL<195>v" ":844v"
"WL<194>v" ":845v"
"WL<193>v" ":846v"
"WL<192>v" ":847v"
"WL<191>v" ":848v"
"WL<190>v" ":849v"
"WL<189>v" ":850v"
"WL<188>v" ":851v"
"WL<187>v" ":852v"
"WL<186>v" ":853v"
"WL<185>v" ":854v"
"WL<184>v" ":855v"
"WL<183>v" ":856v"
"WL<182>v" ":857v"
"WL<181>v" ":858v"
"WL<180>v" ":859v"
"WL<179>v" ":860v"
"WL<178>v" ":861v"
"WL<177>v" ":862v"
"WL<176>v" ":863v"
"WL<175>v" ":864v"
"WL<174>v" ":865v"
"WL<173>v" ":866v"
"WL<172>v" ":867v"
"WL<171>v" ":868v"
"WL<170>v" ":869v"
"WL<169>v" ":870v"
"WL<168>v" ":871v"
"WL<167>v" ":872v"
"WL<166>v" ":873v"
"WL<165>v" ":874v"
"WL<164>v" ":875v"
"WL<163>v" ":876v"
"WL<162>v" ":877v"
"WL<161>v" ":878v"
"WL<160>v" ":879v"
"WL<159>v" ":880v"
"WL<158>v" ":881v"
"WL<157>v" ":882v"
"WL<156>v" ":883v"
"WL<155>v" ":884v"
"WL<154>v" ":885v"
"WL<153>v" ":886v"
"WL<152>v" ":887v"
"WL<151>v" ":888v"
"WL<150>v" ":889v"
"WL<149>v" ":890v"
"WL<148>v" ":891v"
"WL<147>v" ":892v"
"WL<146>v" ":893v"
"WL<145>v" ":894v"
"WL<144>v" ":895v"
"WL<143>v" ":896v"
"WL<142>v" ":897v"
"WL<141>v" ":898v"
"WL<140>v" ":899v"
"WL<139>v" ":900v"
"WL<138>v" ":901v"
"WL<137>v" ":902v"
"WL<136>v" ":903v"
"WL<135>v" ":904v"
"WL<134>v" ":905v"
"WL<133>v" ":906v"
"WL<132>v" ":907v"
"WL<131>v" ":908v"
"WL<130>v" ":909v"
"WL<129>v" ":910v"
"WL<128>v" ":911v"
"WL<127>v" ":912v"
"WL<126>v" ":913v"
"WL<125>v" ":914v"
"WL<124>v" ":915v"
"WL<123>v" ":916v"
"WL<122>v" ":917v"
"WL<121>v" ":918v"
"WL<120>v" ":919v"
"WL<119>v" ":920v"
"WL<118>v" ":921v"
"WL<117>v" ":922v"
"WL<116>v" ":923v"
"WL<115>v" ":924v"
"WL<114>v" ":925v"
"WL<113>v" ":926v"
"WL<112>v" ":927v"
"WL<111>v" ":928v"
"WL<110>v" ":929v"
"WL<109>v" ":930v"
"WL<108>v" ":931v"
"WL<107>v" ":932v"
"WL<106>v" ":933v"
"WL<105>v" ":934v"
"WL<104>v" ":935v"
"WL<103>v" ":936v"
"WL<102>v" ":937v"
"WL<101>v" ":938v"
"WL<100>v" ":939v"
"WL<99>v" ":940v"
"WL<98>v" ":941v"
"WL<97>v" ":942v"
"WL<96>v" ":943v"
"WL<95>v" ":944v"
"WL<94>v" ":945v"
"WL<93>v" ":946v"
"WL<92>v" ":947v"
"WL<91>v" ":948v"
"WL<90>v" ":949v"
"WL<89>v" ":950v"
"WL<88>v" ":951v"
"WL<87>v" ":952v"
"WL<86>v" ":953v"
"WL<85>v" ":954v"
"WL<84>v" ":955v"
"WL<83>v" ":956v"
"WL<82>v" ":957v"
"WL<81>v" ":958v"
"WL<80>v" ":959v"
"WL<79>v" ":960v"
"WL<78>v" ":961v"
"WL<77>v" ":962v"
"WL<76>v" ":963v"
"WL<75>v" ":964v"
"WL<74>v" ":965v"
"WL<73>v" ":966v"
"WL<72>v" ":967v"
"WL<71>v" ":968v"
"WL<70>v" ":969v"
"WL<69>v" ":970v"
"WL<68>v" ":971v"
"WL<67>v" ":972v"
"WL<66>v" ":973v"
"WL<65>v" ":974v"
"WL<64>v" ":975v"
"WL<63>v" ":976v"
"WL<62>v" ":977v"
"WL<61>v" ":978v"
"WL<60>v" ":979v"
"WL<59>v" ":980v"
"WL<58>v" ":981v"
"WL<57>v" ":982v"
"WL<56>v" ":983v"
"WL<55>v" ":984v"
"WL<54>v" ":985v"
"WL<53>v" ":986v"
"WL<52>v" ":987v"
"WL<51>v" ":988v"
"WL<50>v" ":989v"
"WL<49>v" ":990v"
"WL<48>v" ":991v"
"WL<47>v" ":992v"
"WL<46>v" ":993v"
"WL<45>v" ":994v"
"WL<44>v" ":995v"
"WL<43>v" ":996v"
"WL<42>v" ":997v"
"WL<41>v" ":998v"
"WL<40>v" ":999v"
"WL<39>v" ":1000v"
"WL<38>v" ":1001v"
"WL<37>v" ":1002v"
"WL<36>v" ":1003v"
"WL<35>v" ":1004v"
"WL<34>v" ":1005v"
"WL<33>v" ":1006v"
"WL<32>v" ":1007v"
"WL<31>v" ":1008v"
"WL<30>v" ":1009v"
"WL<29>v" ":1010v"
"WL<28>v" ":1011v"
"WL<27>v" ":1012v"
"WL<26>v" ":1013v"
"WL<25>v" ":1014v"
"WL<24>v" ":1015v"
"WL<23>v" ":1016v"
"WL<22>v" ":1017v"
"WL<21>v" ":1018v"
"WL<20>v" ":1019v"
"WL<19>v" ":1020v"
"WL<18>v" ":1021v"
"WL<17>v" ":1022v"
"WL<16>v" ":1023v"
"WL<15>v" ":1024v"
"WL<14>v" ":1025v"
"WL<13>v" ":1026v"
"WL<12>v" ":1027v"
"WL<11>v" ":1028v"
"WL<10>v" ":1029v"
"WL<9>v" ":1030v"
"WL<8>v" ":1031v"
"WL<7>v" ":1032v"
"WL<6>v" ":1033v"
"WL<5>v" ":1034v"
"WL<4>v" ":1035v"
"WL<3>v" ":1036v"
"WL<2>v" ":1037v"
"WL<1>v" ":1038v"
"WL<0>v" ":1039v"
