HEADER
"PSFversion" "1.00"
"SEL7<1>v" ":SEL7\\[1\\]v"
"SEL6<1>v" ":SEL6\\[1\\]v"
"SEL5<1>v" ":SEL5\\[1\\]v"
"SEL5<0>v" ":SEL5\\[0\\]v"
"SEL4<1>v" ":SEL4\\[1\\]v"
"SEL4<0>v" ":SEL4\\[0\\]v"
"SEL3<1>v" ":SEL3\\[1\\]v"
"SEL3<0>v" ":SEL3\\[0\\]v"
"SEL2<1>v" ":SEL2\\[1\\]v"
"SEL2<0>v" ":SEL2\\[0\\]v"
"SEL1<1>v" ":SEL1\\[1\\]v"
"SEL1<0>v" ":SEL1\\[0\\]v"
"SEL0<1>v" ":SEL0\\[1\\]v"
"SEL0<0>v" ":SEL0\\[0\\]v"
"WLSEL<1536>v" ":WLSEL\\[1536\\]v"
"WLSEL<1537>v" ":WLSEL\\[1537\\]v"
"WLSEL<1538>v" ":WLSEL\\[1538\\]v"
"WLSEL<1539>v" ":WLSEL\\[1539\\]v"
"WLSEL<1540>v" ":WLSEL\\[1540\\]v"
"WLSEL<1541>v" ":WLSEL\\[1541\\]v"
"WLSEL<1542>v" ":WLSEL\\[1542\\]v"
"WLSEL<1543>v" ":WLSEL\\[1543\\]v"
"WLSEL<1544>v" ":WLSEL\\[1544\\]v"
"WLSEL<1545>v" ":WLSEL\\[1545\\]v"
"WLSEL<1546>v" ":WLSEL\\[1546\\]v"
"WLSEL<1547>v" ":WLSEL\\[1547\\]v"
"WLSEL<1548>v" ":WLSEL\\[1548\\]v"
"WLSEL<1549>v" ":WLSEL\\[1549\\]v"
"WLSEL<1550>v" ":WLSEL\\[1550\\]v"
"WLSEL<1551>v" ":WLSEL\\[1551\\]v"
"WLSEL<1552>v" ":WLSEL\\[1552\\]v"
"WLSEL<1553>v" ":WLSEL\\[1553\\]v"
"WLSEL<1554>v" ":WLSEL\\[1554\\]v"
"WLSEL<1555>v" ":WLSEL\\[1555\\]v"
"WLSEL<1556>v" ":WLSEL\\[1556\\]v"
"WLSEL<1557>v" ":WLSEL\\[1557\\]v"
"WLSEL<1558>v" ":WLSEL\\[1558\\]v"
"WLSEL<1559>v" ":WLSEL\\[1559\\]v"
"WLSEL<1560>v" ":WLSEL\\[1560\\]v"
"WLSEL<1561>v" ":WLSEL\\[1561\\]v"
"WLSEL<1562>v" ":WLSEL\\[1562\\]v"
"WLSEL<1563>v" ":WLSEL\\[1563\\]v"
"WLSEL<1564>v" ":WLSEL\\[1564\\]v"
"WLSEL<1565>v" ":WLSEL\\[1565\\]v"
"WLSEL<1566>v" ":WLSEL\\[1566\\]v"
"WLSEL<1567>v" ":WLSEL\\[1567\\]v"
"WLSEL<1568>v" ":WLSEL\\[1568\\]v"
"WLSEL<1569>v" ":WLSEL\\[1569\\]v"
"WLSEL<1570>v" ":WLSEL\\[1570\\]v"
"WLSEL<1571>v" ":WLSEL\\[1571\\]v"
"WLSEL<1572>v" ":WLSEL\\[1572\\]v"
"WLSEL<1573>v" ":WLSEL\\[1573\\]v"
"WLSEL<1574>v" ":WLSEL\\[1574\\]v"
"WLSEL<1575>v" ":WLSEL\\[1575\\]v"
"WLSEL<1576>v" ":WLSEL\\[1576\\]v"
"WLSEL<1577>v" ":WLSEL\\[1577\\]v"
"WLSEL<1578>v" ":WLSEL\\[1578\\]v"
"WLSEL<1579>v" ":WLSEL\\[1579\\]v"
"WLSEL<1580>v" ":WLSEL\\[1580\\]v"
"WLSEL<1581>v" ":WLSEL\\[1581\\]v"
"WLSEL<1582>v" ":WLSEL\\[1582\\]v"
"WLSEL<1583>v" ":WLSEL\\[1583\\]v"
"WLSEL<1584>v" ":WLSEL\\[1584\\]v"
"WLSEL<1585>v" ":WLSEL\\[1585\\]v"
"WLSEL<1586>v" ":WLSEL\\[1586\\]v"
"WLSEL<1587>v" ":WLSEL\\[1587\\]v"
"WLSEL<1588>v" ":WLSEL\\[1588\\]v"
"WLSEL<1589>v" ":WLSEL\\[1589\\]v"
"WLSEL<1590>v" ":WLSEL\\[1590\\]v"
"WLSEL<1591>v" ":WLSEL\\[1591\\]v"
"WLSEL<1592>v" ":WLSEL\\[1592\\]v"
"WLSEL<1593>v" ":WLSEL\\[1593\\]v"
"WLSEL<1594>v" ":WLSEL\\[1594\\]v"
"WLSEL<1595>v" ":WLSEL\\[1595\\]v"
"WLSEL<1596>v" ":WLSEL\\[1596\\]v"
"WLSEL<1597>v" ":WLSEL\\[1597\\]v"
"WLSEL<1598>v" ":WLSEL\\[1598\\]v"
"WLSEL<1599>v" ":WLSEL\\[1599\\]v"
"WLSEL<1600>v" ":WLSEL\\[1600\\]v"
"WLSEL<1601>v" ":WLSEL\\[1601\\]v"
"WLSEL<1602>v" ":WLSEL\\[1602\\]v"
"WLSEL<1603>v" ":WLSEL\\[1603\\]v"
"WLSEL<1604>v" ":WLSEL\\[1604\\]v"
"WLSEL<1605>v" ":WLSEL\\[1605\\]v"
"WLSEL<1606>v" ":WLSEL\\[1606\\]v"
"WLSEL<1607>v" ":WLSEL\\[1607\\]v"
"WLSEL<1608>v" ":WLSEL\\[1608\\]v"
"WLSEL<1609>v" ":WLSEL\\[1609\\]v"
"WLSEL<1610>v" ":WLSEL\\[1610\\]v"
"WLSEL<1611>v" ":WLSEL\\[1611\\]v"
"WLSEL<1612>v" ":WLSEL\\[1612\\]v"
"WLSEL<1613>v" ":WLSEL\\[1613\\]v"
"WLSEL<1614>v" ":WLSEL\\[1614\\]v"
"WLSEL<1615>v" ":WLSEL\\[1615\\]v"
"WLSEL<1616>v" ":WLSEL\\[1616\\]v"
"WLSEL<1617>v" ":WLSEL\\[1617\\]v"
"WLSEL<1618>v" ":WLSEL\\[1618\\]v"
"WLSEL<1619>v" ":WLSEL\\[1619\\]v"
"WLSEL<1620>v" ":WLSEL\\[1620\\]v"
"WLSEL<1621>v" ":WLSEL\\[1621\\]v"
"WLSEL<1622>v" ":WLSEL\\[1622\\]v"
"WLSEL<1623>v" ":WLSEL\\[1623\\]v"
"WLSEL<1624>v" ":WLSEL\\[1624\\]v"
"WLSEL<1625>v" ":WLSEL\\[1625\\]v"
"WLSEL<1626>v" ":WLSEL\\[1626\\]v"
"WLSEL<1627>v" ":WLSEL\\[1627\\]v"
"WLSEL<1628>v" ":WLSEL\\[1628\\]v"
"WLSEL<1629>v" ":WLSEL\\[1629\\]v"
"WLSEL<1630>v" ":WLSEL\\[1630\\]v"
"WLSEL<1631>v" ":WLSEL\\[1631\\]v"
"WLSEL<1632>v" ":WLSEL\\[1632\\]v"
"WLSEL<1633>v" ":WLSEL\\[1633\\]v"
"WLSEL<1634>v" ":WLSEL\\[1634\\]v"
"WLSEL<1635>v" ":WLSEL\\[1635\\]v"
"WLSEL<1636>v" ":WLSEL\\[1636\\]v"
"WLSEL<1637>v" ":WLSEL\\[1637\\]v"
"WLSEL<1638>v" ":WLSEL\\[1638\\]v"
"WLSEL<1639>v" ":WLSEL\\[1639\\]v"
"WLSEL<1640>v" ":WLSEL\\[1640\\]v"
"WLSEL<1641>v" ":WLSEL\\[1641\\]v"
"WLSEL<1642>v" ":WLSEL\\[1642\\]v"
"WLSEL<1643>v" ":WLSEL\\[1643\\]v"
"WLSEL<1644>v" ":WLSEL\\[1644\\]v"
"WLSEL<1645>v" ":WLSEL\\[1645\\]v"
"WLSEL<1646>v" ":WLSEL\\[1646\\]v"
"WLSEL<1647>v" ":WLSEL\\[1647\\]v"
"WLSEL<1648>v" ":WLSEL\\[1648\\]v"
"WLSEL<1649>v" ":WLSEL\\[1649\\]v"
"WLSEL<1650>v" ":WLSEL\\[1650\\]v"
"WLSEL<1651>v" ":WLSEL\\[1651\\]v"
"WLSEL<1652>v" ":WLSEL\\[1652\\]v"
"WLSEL<1653>v" ":WLSEL\\[1653\\]v"
"WLSEL<1654>v" ":WLSEL\\[1654\\]v"
"WLSEL<1655>v" ":WLSEL\\[1655\\]v"
"WLSEL<1656>v" ":WLSEL\\[1656\\]v"
"WLSEL<1657>v" ":WLSEL\\[1657\\]v"
"WLSEL<1658>v" ":WLSEL\\[1658\\]v"
"WLSEL<1659>v" ":WLSEL\\[1659\\]v"
"WLSEL<1660>v" ":WLSEL\\[1660\\]v"
"WLSEL<1661>v" ":WLSEL\\[1661\\]v"
"WLSEL<1662>v" ":WLSEL\\[1662\\]v"
"WLSEL<1663>v" ":WLSEL\\[1663\\]v"
"WLSEL<1664>v" ":WLSEL\\[1664\\]v"
"WLSEL<1665>v" ":WLSEL\\[1665\\]v"
"WLSEL<1666>v" ":WLSEL\\[1666\\]v"
"WLSEL<1667>v" ":WLSEL\\[1667\\]v"
"WLSEL<1668>v" ":WLSEL\\[1668\\]v"
"WLSEL<1669>v" ":WLSEL\\[1669\\]v"
"WLSEL<1670>v" ":WLSEL\\[1670\\]v"
"WLSEL<1671>v" ":WLSEL\\[1671\\]v"
"WLSEL<1672>v" ":WLSEL\\[1672\\]v"
"WLSEL<1673>v" ":WLSEL\\[1673\\]v"
"WLSEL<1674>v" ":WLSEL\\[1674\\]v"
"WLSEL<1675>v" ":WLSEL\\[1675\\]v"
"WLSEL<1676>v" ":WLSEL\\[1676\\]v"
"WLSEL<1677>v" ":WLSEL\\[1677\\]v"
"WLSEL<1678>v" ":WLSEL\\[1678\\]v"
"WLSEL<1679>v" ":WLSEL\\[1679\\]v"
"WLSEL<1680>v" ":WLSEL\\[1680\\]v"
"WLSEL<1681>v" ":WLSEL\\[1681\\]v"
"WLSEL<1682>v" ":WLSEL\\[1682\\]v"
"WLSEL<1683>v" ":WLSEL\\[1683\\]v"
"WLSEL<1684>v" ":WLSEL\\[1684\\]v"
"WLSEL<1685>v" ":WLSEL\\[1685\\]v"
"WLSEL<1686>v" ":WLSEL\\[1686\\]v"
"WLSEL<1687>v" ":WLSEL\\[1687\\]v"
"WLSEL<1688>v" ":WLSEL\\[1688\\]v"
"WLSEL<1689>v" ":WLSEL\\[1689\\]v"
"WLSEL<1690>v" ":WLSEL\\[1690\\]v"
"WLSEL<1691>v" ":WLSEL\\[1691\\]v"
"WLSEL<1692>v" ":WLSEL\\[1692\\]v"
"WLSEL<1693>v" ":WLSEL\\[1693\\]v"
"WLSEL<1694>v" ":WLSEL\\[1694\\]v"
"WLSEL<1695>v" ":WLSEL\\[1695\\]v"
"WLSEL<1696>v" ":WLSEL\\[1696\\]v"
"WLSEL<1697>v" ":WLSEL\\[1697\\]v"
"WLSEL<1698>v" ":WLSEL\\[1698\\]v"
"WLSEL<1699>v" ":WLSEL\\[1699\\]v"
"WLSEL<1700>v" ":WLSEL\\[1700\\]v"
"WLSEL<1701>v" ":WLSEL\\[1701\\]v"
"WLSEL<1702>v" ":WLSEL\\[1702\\]v"
"WLSEL<1703>v" ":WLSEL\\[1703\\]v"
"WLSEL<1704>v" ":WLSEL\\[1704\\]v"
"WLSEL<1705>v" ":WLSEL\\[1705\\]v"
"WLSEL<1706>v" ":WLSEL\\[1706\\]v"
"WLSEL<1707>v" ":WLSEL\\[1707\\]v"
"WLSEL<1708>v" ":WLSEL\\[1708\\]v"
"WLSEL<1709>v" ":WLSEL\\[1709\\]v"
"WLSEL<1710>v" ":WLSEL\\[1710\\]v"
"WLSEL<1711>v" ":WLSEL\\[1711\\]v"
"WLSEL<1712>v" ":WLSEL\\[1712\\]v"
"WLSEL<1713>v" ":WLSEL\\[1713\\]v"
"WLSEL<1714>v" ":WLSEL\\[1714\\]v"
"WLSEL<1715>v" ":WLSEL\\[1715\\]v"
"WLSEL<1716>v" ":WLSEL\\[1716\\]v"
"WLSEL<1717>v" ":WLSEL\\[1717\\]v"
"WLSEL<1718>v" ":WLSEL\\[1718\\]v"
"WLSEL<1719>v" ":WLSEL\\[1719\\]v"
"WLSEL<1720>v" ":WLSEL\\[1720\\]v"
"WLSEL<1721>v" ":WLSEL\\[1721\\]v"
"WLSEL<1722>v" ":WLSEL\\[1722\\]v"
"WLSEL<1723>v" ":WLSEL\\[1723\\]v"
"WLSEL<1724>v" ":WLSEL\\[1724\\]v"
"WLSEL<1725>v" ":WLSEL\\[1725\\]v"
"WLSEL<1726>v" ":WLSEL\\[1726\\]v"
"WLSEL<1727>v" ":WLSEL\\[1727\\]v"
"WLSEL<1728>v" ":WLSEL\\[1728\\]v"
"WLSEL<1729>v" ":WLSEL\\[1729\\]v"
"WLSEL<1730>v" ":WLSEL\\[1730\\]v"
"WLSEL<1731>v" ":WLSEL\\[1731\\]v"
"WLSEL<1732>v" ":WLSEL\\[1732\\]v"
"WLSEL<1733>v" ":WLSEL\\[1733\\]v"
"WLSEL<1734>v" ":WLSEL\\[1734\\]v"
"WLSEL<1735>v" ":WLSEL\\[1735\\]v"
"WLSEL<1736>v" ":WLSEL\\[1736\\]v"
"WLSEL<1737>v" ":WLSEL\\[1737\\]v"
"WLSEL<1738>v" ":WLSEL\\[1738\\]v"
"WLSEL<1739>v" ":WLSEL\\[1739\\]v"
"WLSEL<1740>v" ":WLSEL\\[1740\\]v"
"WLSEL<1741>v" ":WLSEL\\[1741\\]v"
"WLSEL<1742>v" ":WLSEL\\[1742\\]v"
"WLSEL<1743>v" ":WLSEL\\[1743\\]v"
"WLSEL<1744>v" ":WLSEL\\[1744\\]v"
"WLSEL<1745>v" ":WLSEL\\[1745\\]v"
"WLSEL<1746>v" ":WLSEL\\[1746\\]v"
"WLSEL<1747>v" ":WLSEL\\[1747\\]v"
"WLSEL<1748>v" ":WLSEL\\[1748\\]v"
"WLSEL<1749>v" ":WLSEL\\[1749\\]v"
"WLSEL<1750>v" ":WLSEL\\[1750\\]v"
"WLSEL<1751>v" ":WLSEL\\[1751\\]v"
"WLSEL<1752>v" ":WLSEL\\[1752\\]v"
"WLSEL<1753>v" ":WLSEL\\[1753\\]v"
"WLSEL<1754>v" ":WLSEL\\[1754\\]v"
"WLSEL<1755>v" ":WLSEL\\[1755\\]v"
"WLSEL<1756>v" ":WLSEL\\[1756\\]v"
"WLSEL<1757>v" ":WLSEL\\[1757\\]v"
"WLSEL<1758>v" ":WLSEL\\[1758\\]v"
"WLSEL<1759>v" ":WLSEL\\[1759\\]v"
"WLSEL<1760>v" ":WLSEL\\[1760\\]v"
"WLSEL<1761>v" ":WLSEL\\[1761\\]v"
"WLSEL<1762>v" ":WLSEL\\[1762\\]v"
"WLSEL<1763>v" ":WLSEL\\[1763\\]v"
"WLSEL<1764>v" ":WLSEL\\[1764\\]v"
"WLSEL<1765>v" ":WLSEL\\[1765\\]v"
"WLSEL<1766>v" ":WLSEL\\[1766\\]v"
"WLSEL<1767>v" ":WLSEL\\[1767\\]v"
"WLSEL<1768>v" ":WLSEL\\[1768\\]v"
"WLSEL<1769>v" ":WLSEL\\[1769\\]v"
"WLSEL<1770>v" ":WLSEL\\[1770\\]v"
"WLSEL<1771>v" ":WLSEL\\[1771\\]v"
"WLSEL<1772>v" ":WLSEL\\[1772\\]v"
"WLSEL<1773>v" ":WLSEL\\[1773\\]v"
"WLSEL<1774>v" ":WLSEL\\[1774\\]v"
"WLSEL<1775>v" ":WLSEL\\[1775\\]v"
"WLSEL<1776>v" ":WLSEL\\[1776\\]v"
"WLSEL<1777>v" ":WLSEL\\[1777\\]v"
"WLSEL<1778>v" ":WLSEL\\[1778\\]v"
"WLSEL<1779>v" ":WLSEL\\[1779\\]v"
"WLSEL<1780>v" ":WLSEL\\[1780\\]v"
"WLSEL<1781>v" ":WLSEL\\[1781\\]v"
"WLSEL<1782>v" ":WLSEL\\[1782\\]v"
"WLSEL<1783>v" ":WLSEL\\[1783\\]v"
"WLSEL<1784>v" ":WLSEL\\[1784\\]v"
"WLSEL<1785>v" ":WLSEL\\[1785\\]v"
"WLSEL<1786>v" ":WLSEL\\[1786\\]v"
"WLSEL<1787>v" ":WLSEL\\[1787\\]v"
"WLSEL<1788>v" ":WLSEL\\[1788\\]v"
"WLSEL<1789>v" ":WLSEL\\[1789\\]v"
"WLSEL<1790>v" ":WLSEL\\[1790\\]v"
"WLSEL<1791>v" ":WLSEL\\[1791\\]v"
"WLSEL<1792>v" ":WLSEL\\[1792\\]v"
"WLSEL<1793>v" ":WLSEL\\[1793\\]v"
"WLSEL<1794>v" ":WLSEL\\[1794\\]v"
"WLSEL<1795>v" ":WLSEL\\[1795\\]v"
"WLSEL<1796>v" ":WLSEL\\[1796\\]v"
"WLSEL<1797>v" ":WLSEL\\[1797\\]v"
"WLSEL<1798>v" ":WLSEL\\[1798\\]v"
"WLSEL<1799>v" ":WLSEL\\[1799\\]v"
"WLSEL<1800>v" ":WLSEL\\[1800\\]v"
"WLSEL<1801>v" ":WLSEL\\[1801\\]v"
"WLSEL<1802>v" ":WLSEL\\[1802\\]v"
"WLSEL<1803>v" ":WLSEL\\[1803\\]v"
"WLSEL<1804>v" ":WLSEL\\[1804\\]v"
"WLSEL<1805>v" ":WLSEL\\[1805\\]v"
"WLSEL<1806>v" ":WLSEL\\[1806\\]v"
"WLSEL<1807>v" ":WLSEL\\[1807\\]v"
"WLSEL<1808>v" ":WLSEL\\[1808\\]v"
"WLSEL<1809>v" ":WLSEL\\[1809\\]v"
"WLSEL<1810>v" ":WLSEL\\[1810\\]v"
"WLSEL<1811>v" ":WLSEL\\[1811\\]v"
"WLSEL<1812>v" ":WLSEL\\[1812\\]v"
"WLSEL<1813>v" ":WLSEL\\[1813\\]v"
"WLSEL<1814>v" ":WLSEL\\[1814\\]v"
"WLSEL<1815>v" ":WLSEL\\[1815\\]v"
"WLSEL<1816>v" ":WLSEL\\[1816\\]v"
"WLSEL<1817>v" ":WLSEL\\[1817\\]v"
"WLSEL<1818>v" ":WLSEL\\[1818\\]v"
"WLSEL<1819>v" ":WLSEL\\[1819\\]v"
"WLSEL<1820>v" ":WLSEL\\[1820\\]v"
"WLSEL<1821>v" ":WLSEL\\[1821\\]v"
"WLSEL<1822>v" ":WLSEL\\[1822\\]v"
"WLSEL<1823>v" ":WLSEL\\[1823\\]v"
"WLSEL<1824>v" ":WLSEL\\[1824\\]v"
"WLSEL<1825>v" ":WLSEL\\[1825\\]v"
"WLSEL<1826>v" ":WLSEL\\[1826\\]v"
"WLSEL<1827>v" ":WLSEL\\[1827\\]v"
"WLSEL<1828>v" ":WLSEL\\[1828\\]v"
"WLSEL<1829>v" ":WLSEL\\[1829\\]v"
"WLSEL<1830>v" ":WLSEL\\[1830\\]v"
"WLSEL<1831>v" ":WLSEL\\[1831\\]v"
"WLSEL<1832>v" ":WLSEL\\[1832\\]v"
"WLSEL<1833>v" ":WLSEL\\[1833\\]v"
"WLSEL<1834>v" ":WLSEL\\[1834\\]v"
"WLSEL<1835>v" ":WLSEL\\[1835\\]v"
"WLSEL<1836>v" ":WLSEL\\[1836\\]v"
"WLSEL<1837>v" ":WLSEL\\[1837\\]v"
"WLSEL<1838>v" ":WLSEL\\[1838\\]v"
"WLSEL<1839>v" ":WLSEL\\[1839\\]v"
"WLSEL<1840>v" ":WLSEL\\[1840\\]v"
"WLSEL<1841>v" ":WLSEL\\[1841\\]v"
"WLSEL<1842>v" ":WLSEL\\[1842\\]v"
"WLSEL<1843>v" ":WLSEL\\[1843\\]v"
"WLSEL<1844>v" ":WLSEL\\[1844\\]v"
"WLSEL<1845>v" ":WLSEL\\[1845\\]v"
"WLSEL<1846>v" ":WLSEL\\[1846\\]v"
"WLSEL<1847>v" ":WLSEL\\[1847\\]v"
"WLSEL<1848>v" ":WLSEL\\[1848\\]v"
"WLSEL<1849>v" ":WLSEL\\[1849\\]v"
"WLSEL<1850>v" ":WLSEL\\[1850\\]v"
"WLSEL<1851>v" ":WLSEL\\[1851\\]v"
"WLSEL<1852>v" ":WLSEL\\[1852\\]v"
"WLSEL<1853>v" ":WLSEL\\[1853\\]v"
"WLSEL<1854>v" ":WLSEL\\[1854\\]v"
"WLSEL<1855>v" ":WLSEL\\[1855\\]v"
"WLSEL<1856>v" ":WLSEL\\[1856\\]v"
"WLSEL<1857>v" ":WLSEL\\[1857\\]v"
"WLSEL<1858>v" ":WLSEL\\[1858\\]v"
"WLSEL<1859>v" ":WLSEL\\[1859\\]v"
"WLSEL<1860>v" ":WLSEL\\[1860\\]v"
"WLSEL<1861>v" ":WLSEL\\[1861\\]v"
"WLSEL<1862>v" ":WLSEL\\[1862\\]v"
"WLSEL<1863>v" ":WLSEL\\[1863\\]v"
"WLSEL<1864>v" ":WLSEL\\[1864\\]v"
"WLSEL<1865>v" ":WLSEL\\[1865\\]v"
"WLSEL<1866>v" ":WLSEL\\[1866\\]v"
"WLSEL<1867>v" ":WLSEL\\[1867\\]v"
"WLSEL<1868>v" ":WLSEL\\[1868\\]v"
"WLSEL<1869>v" ":WLSEL\\[1869\\]v"
"WLSEL<1870>v" ":WLSEL\\[1870\\]v"
"WLSEL<1871>v" ":WLSEL\\[1871\\]v"
"WLSEL<1872>v" ":WLSEL\\[1872\\]v"
"WLSEL<1873>v" ":WLSEL\\[1873\\]v"
"WLSEL<1874>v" ":WLSEL\\[1874\\]v"
"WLSEL<1875>v" ":WLSEL\\[1875\\]v"
"WLSEL<1876>v" ":WLSEL\\[1876\\]v"
"WLSEL<1877>v" ":WLSEL\\[1877\\]v"
"WLSEL<1878>v" ":WLSEL\\[1878\\]v"
"WLSEL<1879>v" ":WLSEL\\[1879\\]v"
"WLSEL<1880>v" ":WLSEL\\[1880\\]v"
"WLSEL<1881>v" ":WLSEL\\[1881\\]v"
"WLSEL<1882>v" ":WLSEL\\[1882\\]v"
"WLSEL<1883>v" ":WLSEL\\[1883\\]v"
"WLSEL<1884>v" ":WLSEL\\[1884\\]v"
"WLSEL<1885>v" ":WLSEL\\[1885\\]v"
"WLSEL<1886>v" ":WLSEL\\[1886\\]v"
"WLSEL<1887>v" ":WLSEL\\[1887\\]v"
"WLSEL<1888>v" ":WLSEL\\[1888\\]v"
"WLSEL<1889>v" ":WLSEL\\[1889\\]v"
"WLSEL<1890>v" ":WLSEL\\[1890\\]v"
"WLSEL<1891>v" ":WLSEL\\[1891\\]v"
"WLSEL<1892>v" ":WLSEL\\[1892\\]v"
"WLSEL<1893>v" ":WLSEL\\[1893\\]v"
"WLSEL<1894>v" ":WLSEL\\[1894\\]v"
"WLSEL<1895>v" ":WLSEL\\[1895\\]v"
"WLSEL<1896>v" ":WLSEL\\[1896\\]v"
"WLSEL<1897>v" ":WLSEL\\[1897\\]v"
"WLSEL<1898>v" ":WLSEL\\[1898\\]v"
"WLSEL<1899>v" ":WLSEL\\[1899\\]v"
"WLSEL<1900>v" ":WLSEL\\[1900\\]v"
"WLSEL<1901>v" ":WLSEL\\[1901\\]v"
"WLSEL<1902>v" ":WLSEL\\[1902\\]v"
"WLSEL<1903>v" ":WLSEL\\[1903\\]v"
"WLSEL<1904>v" ":WLSEL\\[1904\\]v"
"WLSEL<1905>v" ":WLSEL\\[1905\\]v"
"WLSEL<1906>v" ":WLSEL\\[1906\\]v"
"WLSEL<1907>v" ":WLSEL\\[1907\\]v"
"WLSEL<1908>v" ":WLSEL\\[1908\\]v"
"WLSEL<1909>v" ":WLSEL\\[1909\\]v"
"WLSEL<1910>v" ":WLSEL\\[1910\\]v"
"WLSEL<1911>v" ":WLSEL\\[1911\\]v"
"WLSEL<1912>v" ":WLSEL\\[1912\\]v"
"WLSEL<1913>v" ":WLSEL\\[1913\\]v"
"WLSEL<1914>v" ":WLSEL\\[1914\\]v"
"WLSEL<1915>v" ":WLSEL\\[1915\\]v"
"WLSEL<1916>v" ":WLSEL\\[1916\\]v"
"WLSEL<1917>v" ":WLSEL\\[1917\\]v"
"WLSEL<1918>v" ":WLSEL\\[1918\\]v"
"WLSEL<1919>v" ":WLSEL\\[1919\\]v"
"WLSEL<1920>v" ":WLSEL\\[1920\\]v"
"WLSEL<1921>v" ":WLSEL\\[1921\\]v"
"WLSEL<1922>v" ":WLSEL\\[1922\\]v"
"WLSEL<1923>v" ":WLSEL\\[1923\\]v"
"WLSEL<1924>v" ":WLSEL\\[1924\\]v"
"WLSEL<1925>v" ":WLSEL\\[1925\\]v"
"WLSEL<1926>v" ":WLSEL\\[1926\\]v"
"WLSEL<1927>v" ":WLSEL\\[1927\\]v"
"WLSEL<1928>v" ":WLSEL\\[1928\\]v"
"WLSEL<1929>v" ":WLSEL\\[1929\\]v"
"WLSEL<1930>v" ":WLSEL\\[1930\\]v"
"WLSEL<1931>v" ":WLSEL\\[1931\\]v"
"WLSEL<1932>v" ":WLSEL\\[1932\\]v"
"WLSEL<1933>v" ":WLSEL\\[1933\\]v"
"WLSEL<1934>v" ":WLSEL\\[1934\\]v"
"WLSEL<1935>v" ":WLSEL\\[1935\\]v"
"WLSEL<1936>v" ":WLSEL\\[1936\\]v"
"WLSEL<1937>v" ":WLSEL\\[1937\\]v"
"WLSEL<1938>v" ":WLSEL\\[1938\\]v"
"WLSEL<1939>v" ":WLSEL\\[1939\\]v"
"WLSEL<1940>v" ":WLSEL\\[1940\\]v"
"WLSEL<1941>v" ":WLSEL\\[1941\\]v"
"WLSEL<1942>v" ":WLSEL\\[1942\\]v"
"WLSEL<1943>v" ":WLSEL\\[1943\\]v"
"WLSEL<1944>v" ":WLSEL\\[1944\\]v"
"WLSEL<1945>v" ":WLSEL\\[1945\\]v"
"WLSEL<1946>v" ":WLSEL\\[1946\\]v"
"WLSEL<1947>v" ":WLSEL\\[1947\\]v"
"WLSEL<1948>v" ":WLSEL\\[1948\\]v"
"WLSEL<1949>v" ":WLSEL\\[1949\\]v"
"WLSEL<1950>v" ":WLSEL\\[1950\\]v"
"WLSEL<1951>v" ":WLSEL\\[1951\\]v"
"WLSEL<1952>v" ":WLSEL\\[1952\\]v"
"WLSEL<1953>v" ":WLSEL\\[1953\\]v"
"WLSEL<1954>v" ":WLSEL\\[1954\\]v"
"WLSEL<1955>v" ":WLSEL\\[1955\\]v"
"WLSEL<1956>v" ":WLSEL\\[1956\\]v"
"WLSEL<1957>v" ":WLSEL\\[1957\\]v"
"WLSEL<1958>v" ":WLSEL\\[1958\\]v"
"WLSEL<1959>v" ":WLSEL\\[1959\\]v"
"WLSEL<1960>v" ":WLSEL\\[1960\\]v"
"WLSEL<1961>v" ":WLSEL\\[1961\\]v"
"WLSEL<1962>v" ":WLSEL\\[1962\\]v"
"WLSEL<1963>v" ":WLSEL\\[1963\\]v"
"WLSEL<1964>v" ":WLSEL\\[1964\\]v"
"WLSEL<1965>v" ":WLSEL\\[1965\\]v"
"WLSEL<1966>v" ":WLSEL\\[1966\\]v"
"WLSEL<1967>v" ":WLSEL\\[1967\\]v"
"WLSEL<1968>v" ":WLSEL\\[1968\\]v"
"WLSEL<1969>v" ":WLSEL\\[1969\\]v"
"WLSEL<1970>v" ":WLSEL\\[1970\\]v"
"WLSEL<1971>v" ":WLSEL\\[1971\\]v"
"WLSEL<1972>v" ":WLSEL\\[1972\\]v"
"WLSEL<1973>v" ":WLSEL\\[1973\\]v"
"WLSEL<1974>v" ":WLSEL\\[1974\\]v"
"WLSEL<1975>v" ":WLSEL\\[1975\\]v"
"WLSEL<1976>v" ":WLSEL\\[1976\\]v"
"WLSEL<1977>v" ":WLSEL\\[1977\\]v"
"WLSEL<1978>v" ":WLSEL\\[1978\\]v"
"WLSEL<1979>v" ":WLSEL\\[1979\\]v"
"WLSEL<1980>v" ":WLSEL\\[1980\\]v"
"WLSEL<1981>v" ":WLSEL\\[1981\\]v"
"WLSEL<1982>v" ":WLSEL\\[1982\\]v"
"WLSEL<1983>v" ":WLSEL\\[1983\\]v"
"WLSEL<1984>v" ":WLSEL\\[1984\\]v"
"WLSEL<1985>v" ":WLSEL\\[1985\\]v"
"WLSEL<1986>v" ":WLSEL\\[1986\\]v"
"WLSEL<1987>v" ":WLSEL\\[1987\\]v"
"WLSEL<1988>v" ":WLSEL\\[1988\\]v"
"WLSEL<1989>v" ":WLSEL\\[1989\\]v"
"WLSEL<1990>v" ":WLSEL\\[1990\\]v"
"WLSEL<1991>v" ":WLSEL\\[1991\\]v"
"WLSEL<1992>v" ":WLSEL\\[1992\\]v"
"WLSEL<1993>v" ":WLSEL\\[1993\\]v"
"WLSEL<1994>v" ":WLSEL\\[1994\\]v"
"WLSEL<1995>v" ":WLSEL\\[1995\\]v"
"WLSEL<1996>v" ":WLSEL\\[1996\\]v"
"WLSEL<1997>v" ":WLSEL\\[1997\\]v"
"WLSEL<1998>v" ":WLSEL\\[1998\\]v"
"WLSEL<1999>v" ":WLSEL\\[1999\\]v"
"WLSEL<2000>v" ":WLSEL\\[2000\\]v"
"WLSEL<2001>v" ":WLSEL\\[2001\\]v"
"WLSEL<2002>v" ":WLSEL\\[2002\\]v"
"WLSEL<2003>v" ":WLSEL\\[2003\\]v"
"WLSEL<2004>v" ":WLSEL\\[2004\\]v"
"WLSEL<2005>v" ":WLSEL\\[2005\\]v"
"WLSEL<2006>v" ":WLSEL\\[2006\\]v"
"WLSEL<2007>v" ":WLSEL\\[2007\\]v"
"WLSEL<2008>v" ":WLSEL\\[2008\\]v"
"WLSEL<2009>v" ":WLSEL\\[2009\\]v"
"WLSEL<2010>v" ":WLSEL\\[2010\\]v"
"WLSEL<2011>v" ":WLSEL\\[2011\\]v"
"WLSEL<2012>v" ":WLSEL\\[2012\\]v"
"WLSEL<2013>v" ":WLSEL\\[2013\\]v"
"WLSEL<2014>v" ":WLSEL\\[2014\\]v"
"WLSEL<2015>v" ":WLSEL\\[2015\\]v"
"WLSEL<2016>v" ":WLSEL\\[2016\\]v"
"WLSEL<2017>v" ":WLSEL\\[2017\\]v"
"WLSEL<2018>v" ":WLSEL\\[2018\\]v"
"WLSEL<2019>v" ":WLSEL\\[2019\\]v"
"WLSEL<2020>v" ":WLSEL\\[2020\\]v"
"WLSEL<2021>v" ":WLSEL\\[2021\\]v"
"WLSEL<2022>v" ":WLSEL\\[2022\\]v"
"WLSEL<2023>v" ":WLSEL\\[2023\\]v"
"WLSEL<2024>v" ":WLSEL\\[2024\\]v"
"WLSEL<2025>v" ":WLSEL\\[2025\\]v"
"WLSEL<2026>v" ":WLSEL\\[2026\\]v"
"WLSEL<2027>v" ":WLSEL\\[2027\\]v"
"WLSEL<2028>v" ":WLSEL\\[2028\\]v"
"WLSEL<2029>v" ":WLSEL\\[2029\\]v"
"WLSEL<2030>v" ":WLSEL\\[2030\\]v"
"WLSEL<2031>v" ":WLSEL\\[2031\\]v"
"WLSEL<2032>v" ":WLSEL\\[2032\\]v"
"WLSEL<2033>v" ":WLSEL\\[2033\\]v"
"WLSEL<2034>v" ":WLSEL\\[2034\\]v"
"WLSEL<2035>v" ":WLSEL\\[2035\\]v"
"WLSEL<2036>v" ":WLSEL\\[2036\\]v"
"WLSEL<2037>v" ":WLSEL\\[2037\\]v"
"WLSEL<2038>v" ":WLSEL\\[2038\\]v"
"WLSEL<2039>v" ":WLSEL\\[2039\\]v"
"WLSEL<2040>v" ":WLSEL\\[2040\\]v"
"WLSEL<2041>v" ":WLSEL\\[2041\\]v"
"WLSEL<2042>v" ":WLSEL\\[2042\\]v"
"WLSEL<2043>v" ":WLSEL\\[2043\\]v"
"WLSEL<2044>v" ":WLSEL\\[2044\\]v"
"WLSEL<2045>v" ":WLSEL\\[2045\\]v"
"WLSEL<2046>v" ":WLSEL\\[2046\\]v"
"WLSEL<2047>v" ":WLSEL\\[2047\\]v"
"SEL6<0>v" ":SEL6\\[0\\]v"
"WLSEL<1024>v" ":WLSEL\\[1024\\]v"
"WLSEL<1025>v" ":WLSEL\\[1025\\]v"
"WLSEL<1026>v" ":WLSEL\\[1026\\]v"
"WLSEL<1027>v" ":WLSEL\\[1027\\]v"
"WLSEL<1028>v" ":WLSEL\\[1028\\]v"
"WLSEL<1029>v" ":WLSEL\\[1029\\]v"
"WLSEL<1030>v" ":WLSEL\\[1030\\]v"
"WLSEL<1031>v" ":WLSEL\\[1031\\]v"
"WLSEL<1032>v" ":WLSEL\\[1032\\]v"
"WLSEL<1033>v" ":WLSEL\\[1033\\]v"
"WLSEL<1034>v" ":WLSEL\\[1034\\]v"
"WLSEL<1035>v" ":WLSEL\\[1035\\]v"
"WLSEL<1036>v" ":WLSEL\\[1036\\]v"
"WLSEL<1037>v" ":WLSEL\\[1037\\]v"
"WLSEL<1038>v" ":WLSEL\\[1038\\]v"
"WLSEL<1039>v" ":WLSEL\\[1039\\]v"
"WLSEL<1040>v" ":WLSEL\\[1040\\]v"
"WLSEL<1041>v" ":WLSEL\\[1041\\]v"
"WLSEL<1042>v" ":WLSEL\\[1042\\]v"
"WLSEL<1043>v" ":WLSEL\\[1043\\]v"
"WLSEL<1044>v" ":WLSEL\\[1044\\]v"
"WLSEL<1045>v" ":WLSEL\\[1045\\]v"
"WLSEL<1046>v" ":WLSEL\\[1046\\]v"
"WLSEL<1047>v" ":WLSEL\\[1047\\]v"
"WLSEL<1048>v" ":WLSEL\\[1048\\]v"
"WLSEL<1049>v" ":WLSEL\\[1049\\]v"
"WLSEL<1050>v" ":WLSEL\\[1050\\]v"
"WLSEL<1051>v" ":WLSEL\\[1051\\]v"
"WLSEL<1052>v" ":WLSEL\\[1052\\]v"
"WLSEL<1053>v" ":WLSEL\\[1053\\]v"
"WLSEL<1054>v" ":WLSEL\\[1054\\]v"
"WLSEL<1055>v" ":WLSEL\\[1055\\]v"
"WLSEL<1056>v" ":WLSEL\\[1056\\]v"
"WLSEL<1057>v" ":WLSEL\\[1057\\]v"
"WLSEL<1058>v" ":WLSEL\\[1058\\]v"
"WLSEL<1059>v" ":WLSEL\\[1059\\]v"
"WLSEL<1060>v" ":WLSEL\\[1060\\]v"
"WLSEL<1061>v" ":WLSEL\\[1061\\]v"
"WLSEL<1062>v" ":WLSEL\\[1062\\]v"
"WLSEL<1063>v" ":WLSEL\\[1063\\]v"
"WLSEL<1064>v" ":WLSEL\\[1064\\]v"
"WLSEL<1065>v" ":WLSEL\\[1065\\]v"
"WLSEL<1066>v" ":WLSEL\\[1066\\]v"
"WLSEL<1067>v" ":WLSEL\\[1067\\]v"
"WLSEL<1068>v" ":WLSEL\\[1068\\]v"
"WLSEL<1069>v" ":WLSEL\\[1069\\]v"
"WLSEL<1070>v" ":WLSEL\\[1070\\]v"
"WLSEL<1071>v" ":WLSEL\\[1071\\]v"
"WLSEL<1072>v" ":WLSEL\\[1072\\]v"
"WLSEL<1073>v" ":WLSEL\\[1073\\]v"
"WLSEL<1074>v" ":WLSEL\\[1074\\]v"
"WLSEL<1075>v" ":WLSEL\\[1075\\]v"
"WLSEL<1076>v" ":WLSEL\\[1076\\]v"
"WLSEL<1077>v" ":WLSEL\\[1077\\]v"
"WLSEL<1078>v" ":WLSEL\\[1078\\]v"
"WLSEL<1079>v" ":WLSEL\\[1079\\]v"
"WLSEL<1080>v" ":WLSEL\\[1080\\]v"
"WLSEL<1081>v" ":WLSEL\\[1081\\]v"
"WLSEL<1082>v" ":WLSEL\\[1082\\]v"
"WLSEL<1083>v" ":WLSEL\\[1083\\]v"
"WLSEL<1084>v" ":WLSEL\\[1084\\]v"
"WLSEL<1085>v" ":WLSEL\\[1085\\]v"
"WLSEL<1086>v" ":WLSEL\\[1086\\]v"
"WLSEL<1087>v" ":WLSEL\\[1087\\]v"
"WLSEL<1088>v" ":WLSEL\\[1088\\]v"
"WLSEL<1089>v" ":WLSEL\\[1089\\]v"
"WLSEL<1090>v" ":WLSEL\\[1090\\]v"
"WLSEL<1091>v" ":WLSEL\\[1091\\]v"
"WLSEL<1092>v" ":WLSEL\\[1092\\]v"
"WLSEL<1093>v" ":WLSEL\\[1093\\]v"
"WLSEL<1094>v" ":WLSEL\\[1094\\]v"
"WLSEL<1095>v" ":WLSEL\\[1095\\]v"
"WLSEL<1096>v" ":WLSEL\\[1096\\]v"
"WLSEL<1097>v" ":WLSEL\\[1097\\]v"
"WLSEL<1098>v" ":WLSEL\\[1098\\]v"
"WLSEL<1099>v" ":WLSEL\\[1099\\]v"
"WLSEL<1100>v" ":WLSEL\\[1100\\]v"
"WLSEL<1101>v" ":WLSEL\\[1101\\]v"
"WLSEL<1102>v" ":WLSEL\\[1102\\]v"
"WLSEL<1103>v" ":WLSEL\\[1103\\]v"
"WLSEL<1104>v" ":WLSEL\\[1104\\]v"
"WLSEL<1105>v" ":WLSEL\\[1105\\]v"
"WLSEL<1106>v" ":WLSEL\\[1106\\]v"
"WLSEL<1107>v" ":WLSEL\\[1107\\]v"
"WLSEL<1108>v" ":WLSEL\\[1108\\]v"
"WLSEL<1109>v" ":WLSEL\\[1109\\]v"
"WLSEL<1110>v" ":WLSEL\\[1110\\]v"
"WLSEL<1111>v" ":WLSEL\\[1111\\]v"
"WLSEL<1112>v" ":WLSEL\\[1112\\]v"
"WLSEL<1113>v" ":WLSEL\\[1113\\]v"
"WLSEL<1114>v" ":WLSEL\\[1114\\]v"
"WLSEL<1115>v" ":WLSEL\\[1115\\]v"
"WLSEL<1116>v" ":WLSEL\\[1116\\]v"
"WLSEL<1117>v" ":WLSEL\\[1117\\]v"
"WLSEL<1118>v" ":WLSEL\\[1118\\]v"
"WLSEL<1119>v" ":WLSEL\\[1119\\]v"
"WLSEL<1120>v" ":WLSEL\\[1120\\]v"
"WLSEL<1121>v" ":WLSEL\\[1121\\]v"
"WLSEL<1122>v" ":WLSEL\\[1122\\]v"
"WLSEL<1123>v" ":WLSEL\\[1123\\]v"
"WLSEL<1124>v" ":WLSEL\\[1124\\]v"
"WLSEL<1125>v" ":WLSEL\\[1125\\]v"
"WLSEL<1126>v" ":WLSEL\\[1126\\]v"
"WLSEL<1127>v" ":WLSEL\\[1127\\]v"
"WLSEL<1128>v" ":WLSEL\\[1128\\]v"
"WLSEL<1129>v" ":WLSEL\\[1129\\]v"
"WLSEL<1130>v" ":WLSEL\\[1130\\]v"
"WLSEL<1131>v" ":WLSEL\\[1131\\]v"
"WLSEL<1132>v" ":WLSEL\\[1132\\]v"
"WLSEL<1133>v" ":WLSEL\\[1133\\]v"
"WLSEL<1134>v" ":WLSEL\\[1134\\]v"
"WLSEL<1135>v" ":WLSEL\\[1135\\]v"
"WLSEL<1136>v" ":WLSEL\\[1136\\]v"
"WLSEL<1137>v" ":WLSEL\\[1137\\]v"
"WLSEL<1138>v" ":WLSEL\\[1138\\]v"
"WLSEL<1139>v" ":WLSEL\\[1139\\]v"
"WLSEL<1140>v" ":WLSEL\\[1140\\]v"
"WLSEL<1141>v" ":WLSEL\\[1141\\]v"
"WLSEL<1142>v" ":WLSEL\\[1142\\]v"
"WLSEL<1143>v" ":WLSEL\\[1143\\]v"
"WLSEL<1144>v" ":WLSEL\\[1144\\]v"
"WLSEL<1145>v" ":WLSEL\\[1145\\]v"
"WLSEL<1146>v" ":WLSEL\\[1146\\]v"
"WLSEL<1147>v" ":WLSEL\\[1147\\]v"
"WLSEL<1148>v" ":WLSEL\\[1148\\]v"
"WLSEL<1149>v" ":WLSEL\\[1149\\]v"
"WLSEL<1150>v" ":WLSEL\\[1150\\]v"
"WLSEL<1151>v" ":WLSEL\\[1151\\]v"
"WLSEL<1152>v" ":WLSEL\\[1152\\]v"
"WLSEL<1153>v" ":WLSEL\\[1153\\]v"
"WLSEL<1154>v" ":WLSEL\\[1154\\]v"
"WLSEL<1155>v" ":WLSEL\\[1155\\]v"
"WLSEL<1156>v" ":WLSEL\\[1156\\]v"
"WLSEL<1157>v" ":WLSEL\\[1157\\]v"
"WLSEL<1158>v" ":WLSEL\\[1158\\]v"
"WLSEL<1159>v" ":WLSEL\\[1159\\]v"
"WLSEL<1160>v" ":WLSEL\\[1160\\]v"
"WLSEL<1161>v" ":WLSEL\\[1161\\]v"
"WLSEL<1162>v" ":WLSEL\\[1162\\]v"
"WLSEL<1163>v" ":WLSEL\\[1163\\]v"
"WLSEL<1164>v" ":WLSEL\\[1164\\]v"
"WLSEL<1165>v" ":WLSEL\\[1165\\]v"
"WLSEL<1166>v" ":WLSEL\\[1166\\]v"
"WLSEL<1167>v" ":WLSEL\\[1167\\]v"
"WLSEL<1168>v" ":WLSEL\\[1168\\]v"
"WLSEL<1169>v" ":WLSEL\\[1169\\]v"
"WLSEL<1170>v" ":WLSEL\\[1170\\]v"
"WLSEL<1171>v" ":WLSEL\\[1171\\]v"
"WLSEL<1172>v" ":WLSEL\\[1172\\]v"
"WLSEL<1173>v" ":WLSEL\\[1173\\]v"
"WLSEL<1174>v" ":WLSEL\\[1174\\]v"
"WLSEL<1175>v" ":WLSEL\\[1175\\]v"
"WLSEL<1176>v" ":WLSEL\\[1176\\]v"
"WLSEL<1177>v" ":WLSEL\\[1177\\]v"
"WLSEL<1178>v" ":WLSEL\\[1178\\]v"
"WLSEL<1179>v" ":WLSEL\\[1179\\]v"
"WLSEL<1180>v" ":WLSEL\\[1180\\]v"
"WLSEL<1181>v" ":WLSEL\\[1181\\]v"
"WLSEL<1182>v" ":WLSEL\\[1182\\]v"
"WLSEL<1183>v" ":WLSEL\\[1183\\]v"
"WLSEL<1184>v" ":WLSEL\\[1184\\]v"
"WLSEL<1185>v" ":WLSEL\\[1185\\]v"
"WLSEL<1186>v" ":WLSEL\\[1186\\]v"
"WLSEL<1187>v" ":WLSEL\\[1187\\]v"
"WLSEL<1188>v" ":WLSEL\\[1188\\]v"
"WLSEL<1189>v" ":WLSEL\\[1189\\]v"
"WLSEL<1190>v" ":WLSEL\\[1190\\]v"
"WLSEL<1191>v" ":WLSEL\\[1191\\]v"
"WLSEL<1192>v" ":WLSEL\\[1192\\]v"
"WLSEL<1193>v" ":WLSEL\\[1193\\]v"
"WLSEL<1194>v" ":WLSEL\\[1194\\]v"
"WLSEL<1195>v" ":WLSEL\\[1195\\]v"
"WLSEL<1196>v" ":WLSEL\\[1196\\]v"
"WLSEL<1197>v" ":WLSEL\\[1197\\]v"
"WLSEL<1198>v" ":WLSEL\\[1198\\]v"
"WLSEL<1199>v" ":WLSEL\\[1199\\]v"
"WLSEL<1200>v" ":WLSEL\\[1200\\]v"
"WLSEL<1201>v" ":WLSEL\\[1201\\]v"
"WLSEL<1202>v" ":WLSEL\\[1202\\]v"
"WLSEL<1203>v" ":WLSEL\\[1203\\]v"
"WLSEL<1204>v" ":WLSEL\\[1204\\]v"
"WLSEL<1205>v" ":WLSEL\\[1205\\]v"
"WLSEL<1206>v" ":WLSEL\\[1206\\]v"
"WLSEL<1207>v" ":WLSEL\\[1207\\]v"
"WLSEL<1208>v" ":WLSEL\\[1208\\]v"
"WLSEL<1209>v" ":WLSEL\\[1209\\]v"
"WLSEL<1210>v" ":WLSEL\\[1210\\]v"
"WLSEL<1211>v" ":WLSEL\\[1211\\]v"
"WLSEL<1212>v" ":WLSEL\\[1212\\]v"
"WLSEL<1213>v" ":WLSEL\\[1213\\]v"
"WLSEL<1214>v" ":WLSEL\\[1214\\]v"
"WLSEL<1215>v" ":WLSEL\\[1215\\]v"
"WLSEL<1216>v" ":WLSEL\\[1216\\]v"
"WLSEL<1217>v" ":WLSEL\\[1217\\]v"
"WLSEL<1218>v" ":WLSEL\\[1218\\]v"
"WLSEL<1219>v" ":WLSEL\\[1219\\]v"
"WLSEL<1220>v" ":WLSEL\\[1220\\]v"
"WLSEL<1221>v" ":WLSEL\\[1221\\]v"
"WLSEL<1222>v" ":WLSEL\\[1222\\]v"
"WLSEL<1223>v" ":WLSEL\\[1223\\]v"
"WLSEL<1224>v" ":WLSEL\\[1224\\]v"
"WLSEL<1225>v" ":WLSEL\\[1225\\]v"
"WLSEL<1226>v" ":WLSEL\\[1226\\]v"
"WLSEL<1227>v" ":WLSEL\\[1227\\]v"
"WLSEL<1228>v" ":WLSEL\\[1228\\]v"
"WLSEL<1229>v" ":WLSEL\\[1229\\]v"
"WLSEL<1230>v" ":WLSEL\\[1230\\]v"
"WLSEL<1231>v" ":WLSEL\\[1231\\]v"
"WLSEL<1232>v" ":WLSEL\\[1232\\]v"
"WLSEL<1233>v" ":WLSEL\\[1233\\]v"
"WLSEL<1234>v" ":WLSEL\\[1234\\]v"
"WLSEL<1235>v" ":WLSEL\\[1235\\]v"
"WLSEL<1236>v" ":WLSEL\\[1236\\]v"
"WLSEL<1237>v" ":WLSEL\\[1237\\]v"
"WLSEL<1238>v" ":WLSEL\\[1238\\]v"
"WLSEL<1239>v" ":WLSEL\\[1239\\]v"
"WLSEL<1240>v" ":WLSEL\\[1240\\]v"
"WLSEL<1241>v" ":WLSEL\\[1241\\]v"
"WLSEL<1242>v" ":WLSEL\\[1242\\]v"
"WLSEL<1243>v" ":WLSEL\\[1243\\]v"
"WLSEL<1244>v" ":WLSEL\\[1244\\]v"
"WLSEL<1245>v" ":WLSEL\\[1245\\]v"
"WLSEL<1246>v" ":WLSEL\\[1246\\]v"
"WLSEL<1247>v" ":WLSEL\\[1247\\]v"
"WLSEL<1248>v" ":WLSEL\\[1248\\]v"
"WLSEL<1249>v" ":WLSEL\\[1249\\]v"
"WLSEL<1250>v" ":WLSEL\\[1250\\]v"
"WLSEL<1251>v" ":WLSEL\\[1251\\]v"
"WLSEL<1252>v" ":WLSEL\\[1252\\]v"
"WLSEL<1253>v" ":WLSEL\\[1253\\]v"
"WLSEL<1254>v" ":WLSEL\\[1254\\]v"
"WLSEL<1255>v" ":WLSEL\\[1255\\]v"
"WLSEL<1256>v" ":WLSEL\\[1256\\]v"
"WLSEL<1257>v" ":WLSEL\\[1257\\]v"
"WLSEL<1258>v" ":WLSEL\\[1258\\]v"
"WLSEL<1259>v" ":WLSEL\\[1259\\]v"
"WLSEL<1260>v" ":WLSEL\\[1260\\]v"
"WLSEL<1261>v" ":WLSEL\\[1261\\]v"
"WLSEL<1262>v" ":WLSEL\\[1262\\]v"
"WLSEL<1263>v" ":WLSEL\\[1263\\]v"
"WLSEL<1264>v" ":WLSEL\\[1264\\]v"
"WLSEL<1265>v" ":WLSEL\\[1265\\]v"
"WLSEL<1266>v" ":WLSEL\\[1266\\]v"
"WLSEL<1267>v" ":WLSEL\\[1267\\]v"
"WLSEL<1268>v" ":WLSEL\\[1268\\]v"
"WLSEL<1269>v" ":WLSEL\\[1269\\]v"
"WLSEL<1270>v" ":WLSEL\\[1270\\]v"
"WLSEL<1271>v" ":WLSEL\\[1271\\]v"
"WLSEL<1272>v" ":WLSEL\\[1272\\]v"
"WLSEL<1273>v" ":WLSEL\\[1273\\]v"
"WLSEL<1274>v" ":WLSEL\\[1274\\]v"
"WLSEL<1275>v" ":WLSEL\\[1275\\]v"
"WLSEL<1276>v" ":WLSEL\\[1276\\]v"
"WLSEL<1277>v" ":WLSEL\\[1277\\]v"
"WLSEL<1278>v" ":WLSEL\\[1278\\]v"
"WLSEL<1279>v" ":WLSEL\\[1279\\]v"
"WLSEL<1280>v" ":WLSEL\\[1280\\]v"
"WLSEL<1281>v" ":WLSEL\\[1281\\]v"
"WLSEL<1282>v" ":WLSEL\\[1282\\]v"
"WLSEL<1283>v" ":WLSEL\\[1283\\]v"
"WLSEL<1284>v" ":WLSEL\\[1284\\]v"
"WLSEL<1285>v" ":WLSEL\\[1285\\]v"
"WLSEL<1286>v" ":WLSEL\\[1286\\]v"
"WLSEL<1287>v" ":WLSEL\\[1287\\]v"
"WLSEL<1288>v" ":WLSEL\\[1288\\]v"
"WLSEL<1289>v" ":WLSEL\\[1289\\]v"
"WLSEL<1290>v" ":WLSEL\\[1290\\]v"
"WLSEL<1291>v" ":WLSEL\\[1291\\]v"
"WLSEL<1292>v" ":WLSEL\\[1292\\]v"
"WLSEL<1293>v" ":WLSEL\\[1293\\]v"
"WLSEL<1294>v" ":WLSEL\\[1294\\]v"
"WLSEL<1295>v" ":WLSEL\\[1295\\]v"
"WLSEL<1296>v" ":WLSEL\\[1296\\]v"
"WLSEL<1297>v" ":WLSEL\\[1297\\]v"
"WLSEL<1298>v" ":WLSEL\\[1298\\]v"
"WLSEL<1299>v" ":WLSEL\\[1299\\]v"
"WLSEL<1300>v" ":WLSEL\\[1300\\]v"
"WLSEL<1301>v" ":WLSEL\\[1301\\]v"
"WLSEL<1302>v" ":WLSEL\\[1302\\]v"
"WLSEL<1303>v" ":WLSEL\\[1303\\]v"
"WLSEL<1304>v" ":WLSEL\\[1304\\]v"
"WLSEL<1305>v" ":WLSEL\\[1305\\]v"
"WLSEL<1306>v" ":WLSEL\\[1306\\]v"
"WLSEL<1307>v" ":WLSEL\\[1307\\]v"
"WLSEL<1308>v" ":WLSEL\\[1308\\]v"
"WLSEL<1309>v" ":WLSEL\\[1309\\]v"
"WLSEL<1310>v" ":WLSEL\\[1310\\]v"
"WLSEL<1311>v" ":WLSEL\\[1311\\]v"
"WLSEL<1312>v" ":WLSEL\\[1312\\]v"
"WLSEL<1313>v" ":WLSEL\\[1313\\]v"
"WLSEL<1314>v" ":WLSEL\\[1314\\]v"
"WLSEL<1315>v" ":WLSEL\\[1315\\]v"
"WLSEL<1316>v" ":WLSEL\\[1316\\]v"
"WLSEL<1317>v" ":WLSEL\\[1317\\]v"
"WLSEL<1318>v" ":WLSEL\\[1318\\]v"
"WLSEL<1319>v" ":WLSEL\\[1319\\]v"
"WLSEL<1320>v" ":WLSEL\\[1320\\]v"
"WLSEL<1321>v" ":WLSEL\\[1321\\]v"
"WLSEL<1322>v" ":WLSEL\\[1322\\]v"
"WLSEL<1323>v" ":WLSEL\\[1323\\]v"
"WLSEL<1324>v" ":WLSEL\\[1324\\]v"
"WLSEL<1325>v" ":WLSEL\\[1325\\]v"
"WLSEL<1326>v" ":WLSEL\\[1326\\]v"
"WLSEL<1327>v" ":WLSEL\\[1327\\]v"
"WLSEL<1328>v" ":WLSEL\\[1328\\]v"
"WLSEL<1329>v" ":WLSEL\\[1329\\]v"
"WLSEL<1330>v" ":WLSEL\\[1330\\]v"
"WLSEL<1331>v" ":WLSEL\\[1331\\]v"
"WLSEL<1332>v" ":WLSEL\\[1332\\]v"
"WLSEL<1333>v" ":WLSEL\\[1333\\]v"
"WLSEL<1334>v" ":WLSEL\\[1334\\]v"
"WLSEL<1335>v" ":WLSEL\\[1335\\]v"
"WLSEL<1336>v" ":WLSEL\\[1336\\]v"
"WLSEL<1337>v" ":WLSEL\\[1337\\]v"
"WLSEL<1338>v" ":WLSEL\\[1338\\]v"
"WLSEL<1339>v" ":WLSEL\\[1339\\]v"
"WLSEL<1340>v" ":WLSEL\\[1340\\]v"
"WLSEL<1341>v" ":WLSEL\\[1341\\]v"
"WLSEL<1342>v" ":WLSEL\\[1342\\]v"
"WLSEL<1343>v" ":WLSEL\\[1343\\]v"
"WLSEL<1344>v" ":WLSEL\\[1344\\]v"
"WLSEL<1345>v" ":WLSEL\\[1345\\]v"
"WLSEL<1346>v" ":WLSEL\\[1346\\]v"
"WLSEL<1347>v" ":WLSEL\\[1347\\]v"
"WLSEL<1348>v" ":WLSEL\\[1348\\]v"
"WLSEL<1349>v" ":WLSEL\\[1349\\]v"
"WLSEL<1350>v" ":WLSEL\\[1350\\]v"
"WLSEL<1351>v" ":WLSEL\\[1351\\]v"
"WLSEL<1352>v" ":WLSEL\\[1352\\]v"
"WLSEL<1353>v" ":WLSEL\\[1353\\]v"
"WLSEL<1354>v" ":WLSEL\\[1354\\]v"
"WLSEL<1355>v" ":WLSEL\\[1355\\]v"