HEADER
"PSFversion" "1.00"
"I2<1>n I2<0>n" "Post_L5_32t8"
"Sel0<1>v" ":1v"
"Sel0<0>v" ":2v"
"Sel1<1>v" ":3v"
"Sel1<0>v" ":4v"
"Sel2<1>v" ":5v"
"Sel2<0>v" ":6v"
"Sel3<1>v" ":7v"
"Sel3<0>v" ":8v"
"Sel4<1>v" ":9v"
"Sel4<0>v" ":10v"
"Sel5<1>v" ":11v"
"Sel5<0>v" ":12v"
"Sel6v" ":13v"
"Sel7v" ":14v"
"WL<511>v" ":15v"
"WL<510>v" ":16v"
"WL<509>v" ":17v"
"WL<508>v" ":18v"
"WL<507>v" ":19v"
"WL<506>v" ":20v"
"WL<505>v" ":21v"
"WL<504>v" ":22v"
"WL<503>v" ":23v"
"WL<502>v" ":24v"
"WL<501>v" ":25v"
"WL<500>v" ":26v"
"WL<499>v" ":27v"
"WL<498>v" ":28v"
"WL<497>v" ":29v"
"WL<496>v" ":30v"
"WL<495>v" ":31v"
"WL<494>v" ":32v"
"WL<493>v" ":33v"
"WL<492>v" ":34v"
"WL<491>v" ":35v"
"WL<490>v" ":36v"
"WL<489>v" ":37v"
"WL<488>v" ":38v"
"WL<487>v" ":39v"
"WL<486>v" ":40v"
"WL<485>v" ":41v"
"WL<484>v" ":42v"
"WL<483>v" ":43v"
"WL<482>v" ":44v"
"WL<481>v" ":45v"
"WL<480>v" ":46v"
"WL<479>v" ":47v"
"WL<478>v" ":48v"
"WL<477>v" ":49v"
"WL<476>v" ":50v"
"WL<475>v" ":51v"
"WL<474>v" ":52v"
"WL<473>v" ":53v"
"WL<472>v" ":54v"
"WL<471>v" ":55v"
"WL<470>v" ":56v"
"WL<469>v" ":57v"
"WL<468>v" ":58v"
"WL<467>v" ":59v"
"WL<466>v" ":60v"
"WL<465>v" ":61v"
"WL<464>v" ":62v"
"WL<463>v" ":63v"
"WL<462>v" ":64v"
"WL<461>v" ":65v"
"WL<460>v" ":66v"
"WL<459>v" ":67v"
"WL<458>v" ":68v"
"WL<457>v" ":69v"
"WL<456>v" ":70v"
"WL<455>v" ":71v"
"WL<454>v" ":72v"
"WL<453>v" ":73v"
"WL<452>v" ":74v"
"WL<451>v" ":75v"
"WL<450>v" ":76v"
"WL<449>v" ":77v"
"WL<448>v" ":78v"
"WL<447>v" ":79v"
"WL<446>v" ":80v"
"WL<445>v" ":81v"
"WL<444>v" ":82v"
"WL<443>v" ":83v"
"WL<442>v" ":84v"
"WL<441>v" ":85v"
"WL<440>v" ":86v"
"WL<439>v" ":87v"
"WL<438>v" ":88v"
"WL<437>v" ":89v"
"WL<436>v" ":90v"
"WL<435>v" ":91v"
"WL<434>v" ":92v"
"WL<433>v" ":93v"
"WL<432>v" ":94v"
"WL<431>v" ":95v"
"WL<430>v" ":96v"
"WL<429>v" ":97v"
"WL<428>v" ":98v"
"WL<427>v" ":99v"
"WL<426>v" ":100v"
"WL<425>v" ":101v"
"WL<424>v" ":102v"
"WL<423>v" ":103v"
"WL<422>v" ":104v"
"WL<421>v" ":105v"
"WL<420>v" ":106v"
"WL<419>v" ":107v"
"WL<418>v" ":108v"
"WL<417>v" ":109v"
"WL<416>v" ":110v"
"WL<415>v" ":111v"
"WL<414>v" ":112v"
"WL<413>v" ":113v"
"WL<412>v" ":114v"
"WL<411>v" ":115v"
"WL<410>v" ":116v"
"WL<409>v" ":117v"
"WL<408>v" ":118v"
"WL<407>v" ":119v"
"WL<406>v" ":120v"
"WL<405>v" ":121v"
"WL<404>v" ":122v"
"WL<403>v" ":123v"
"WL<402>v" ":124v"
"WL<401>v" ":125v"
"WL<400>v" ":126v"
"WL<399>v" ":127v"
"WL<398>v" ":128v"
"WL<397>v" ":129v"
"WL<396>v" ":130v"
"WL<395>v" ":131v"
"WL<394>v" ":132v"
"WL<393>v" ":133v"
"WL<392>v" ":134v"
"WL<391>v" ":135v"
"WL<390>v" ":136v"
"WL<389>v" ":137v"
"WL<388>v" ":138v"
"WL<387>v" ":139v"
"WL<386>v" ":140v"
"WL<385>v" ":141v"
"WL<384>v" ":142v"
"WL<383>v" ":143v"
"WL<382>v" ":144v"
"WL<381>v" ":145v"
"WL<380>v" ":146v"
"WL<379>v" ":147v"
"WL<378>v" ":148v"
"WL<377>v" ":149v"
"WL<376>v" ":150v"
"WL<375>v" ":151v"
"WL<374>v" ":152v"
"WL<373>v" ":153v"
"WL<372>v" ":154v"
"WL<371>v" ":155v"
"WL<370>v" ":156v"
"WL<369>v" ":157v"
"WL<368>v" ":158v"
"WL<367>v" ":159v"
"WL<366>v" ":160v"
"WL<365>v" ":161v"
"WL<364>v" ":162v"
"WL<363>v" ":163v"
"WL<362>v" ":164v"
"WL<361>v" ":165v"
"WL<360>v" ":166v"
"WL<359>v" ":167v"
"WL<358>v" ":168v"
"WL<357>v" ":169v"
"WL<356>v" ":170v"
"WL<355>v" ":171v"
"WL<354>v" ":172v"
"WL<353>v" ":173v"
"WL<352>v" ":174v"
"WL<351>v" ":175v"
"WL<350>v" ":176v"
"WL<349>v" ":177v"
"WL<348>v" ":178v"
"WL<347>v" ":179v"
"WL<346>v" ":180v"
"WL<345>v" ":181v"
"WL<344>v" ":182v"
"WL<343>v" ":183v"
"WL<342>v" ":184v"
"WL<341>v" ":185v"
"WL<340>v" ":186v"
"WL<339>v" ":187v"
"WL<338>v" ":188v"
"WL<337>v" ":189v"
"WL<336>v" ":190v"
"WL<335>v" ":191v"
"WL<334>v" ":192v"
"WL<333>v" ":193v"
"WL<332>v" ":194v"
"WL<331>v" ":195v"
"WL<330>v" ":196v"
"WL<329>v" ":197v"
"WL<328>v" ":198v"
"WL<327>v" ":199v"
"WL<326>v" ":200v"
"WL<325>v" ":201v"
"WL<324>v" ":202v"
"WL<323>v" ":203v"
"WL<322>v" ":204v"
"WL<321>v" ":205v"
"WL<320>v" ":206v"
"WL<319>v" ":207v"
"WL<318>v" ":208v"
"WL<317>v" ":209v"
"WL<316>v" ":210v"
"WL<315>v" ":211v"
"WL<314>v" ":212v"
"WL<313>v" ":213v"
"WL<312>v" ":214v"
"WL<311>v" ":215v"
"WL<310>v" ":216v"
"WL<309>v" ":217v"
"WL<308>v" ":218v"
"WL<307>v" ":219v"
"WL<306>v" ":220v"
"WL<305>v" ":221v"
"WL<304>v" ":222v"
"WL<303>v" ":223v"
"WL<302>v" ":224v"
"WL<301>v" ":225v"
"WL<300>v" ":226v"
"WL<299>v" ":227v"
"WL<298>v" ":228v"
"WL<297>v" ":229v"
"WL<296>v" ":230v"
"WL<295>v" ":231v"
"WL<294>v" ":232v"
"WL<293>v" ":233v"
"WL<292>v" ":234v"
"WL<291>v" ":235v"
"WL<290>v" ":236v"
"WL<289>v" ":237v"
"WL<288>v" ":238v"
"WL<287>v" ":239v"
"WL<286>v" ":240v"
"WL<285>v" ":241v"
"WL<284>v" ":242v"
"WL<283>v" ":243v"
"WL<282>v" ":244v"
"WL<281>v" ":245v"
"WL<280>v" ":246v"
"WL<279>v" ":247v"
"WL<278>v" ":248v"
"WL<277>v" ":249v"
"WL<276>v" ":250v"
"WL<275>v" ":251v"
"WL<274>v" ":252v"
"WL<273>v" ":253v"
"WL<272>v" ":254v"
"WL<271>v" ":255v"
"WL<270>v" ":256v"
"WL<269>v" ":257v"
"WL<268>v" ":258v"
"WL<267>v" ":259v"
"WL<266>v" ":260v"
"WL<265>v" ":261v"
"WL<264>v" ":262v"
"WL<263>v" ":263v"
"WL<262>v" ":264v"
"WL<261>v" ":265v"
"WL<260>v" ":266v"
"WL<259>v" ":267v"
"WL<258>v" ":268v"
"WL<257>v" ":269v"
"WL<256>v" ":270v"
"WL<255>v" ":271v"
"WL<254>v" ":272v"
"WL<253>v" ":273v"
"WL<252>v" ":274v"
"WL<251>v" ":275v"
"WL<250>v" ":276v"
"WL<249>v" ":277v"
"WL<248>v" ":278v"
"WL<247>v" ":279v"
"WL<246>v" ":280v"
"WL<245>v" ":281v"
"WL<244>v" ":282v"
"WL<243>v" ":283v"
"WL<242>v" ":284v"
"WL<241>v" ":285v"
"WL<240>v" ":286v"
"WL<239>v" ":287v"
"WL<238>v" ":288v"
"WL<237>v" ":289v"
"WL<236>v" ":290v"
"WL<235>v" ":291v"
"WL<234>v" ":292v"
"WL<233>v" ":293v"
"WL<232>v" ":294v"
"WL<231>v" ":295v"
"WL<230>v" ":296v"
"WL<229>v" ":297v"
"WL<228>v" ":298v"
"WL<227>v" ":299v"
"WL<226>v" ":300v"
"WL<225>v" ":301v"
"WL<224>v" ":302v"
"WL<223>v" ":303v"
"WL<222>v" ":304v"
"WL<221>v" ":305v"
"WL<220>v" ":306v"
"WL<219>v" ":307v"
"WL<218>v" ":308v"
"WL<217>v" ":309v"
"WL<216>v" ":310v"
"WL<215>v" ":311v"
"WL<214>v" ":312v"
"WL<213>v" ":313v"
"WL<212>v" ":314v"
"WL<211>v" ":315v"
"WL<210>v" ":316v"
"WL<209>v" ":317v"
"WL<208>v" ":318v"
"WL<207>v" ":319v"
"WL<206>v" ":320v"
"WL<205>v" ":321v"
"WL<204>v" ":322v"
"WL<203>v" ":323v"
"WL<202>v" ":324v"
"WL<201>v" ":325v"
"WL<200>v" ":326v"
"WL<199>v" ":327v"
"WL<198>v" ":328v"
"WL<197>v" ":329v"
"WL<196>v" ":330v"
"WL<195>v" ":331v"
"WL<194>v" ":332v"
"WL<193>v" ":333v"
"WL<192>v" ":334v"
"WL<191>v" ":335v"
"WL<190>v" ":336v"
"WL<189>v" ":337v"
"WL<188>v" ":338v"
"WL<187>v" ":339v"
"WL<186>v" ":340v"
"WL<185>v" ":341v"
"WL<184>v" ":342v"
"WL<183>v" ":343v"
"WL<182>v" ":344v"
"WL<181>v" ":345v"
"WL<180>v" ":346v"
"WL<179>v" ":347v"
"WL<178>v" ":348v"
"WL<177>v" ":349v"
"WL<176>v" ":350v"
"WL<175>v" ":351v"
"WL<174>v" ":352v"
"WL<173>v" ":353v"
"WL<172>v" ":354v"
"WL<171>v" ":355v"
"WL<170>v" ":356v"
"WL<169>v" ":357v"
"WL<168>v" ":358v"
"WL<167>v" ":359v"
"WL<166>v" ":360v"
"WL<165>v" ":361v"
"WL<164>v" ":362v"
"WL<163>v" ":363v"
"WL<162>v" ":364v"
"WL<161>v" ":365v"
"WL<160>v" ":366v"
"WL<159>v" ":367v"
"WL<158>v" ":368v"
"WL<157>v" ":369v"
"WL<156>v" ":370v"
"WL<155>v" ":371v"
"WL<154>v" ":372v"
"WL<153>v" ":373v"
"WL<152>v" ":374v"
"WL<151>v" ":375v"
"WL<150>v" ":376v"
"WL<149>v" ":377v"
"WL<148>v" ":378v"
"WL<147>v" ":379v"
"WL<146>v" ":380v"
"WL<145>v" ":381v"
"WL<144>v" ":382v"
"WL<143>v" ":383v"
"WL<142>v" ":384v"
"WL<141>v" ":385v"
"WL<140>v" ":386v"
"WL<139>v" ":387v"
"WL<138>v" ":388v"
"WL<137>v" ":389v"
"WL<136>v" ":390v"
"WL<135>v" ":391v"
"WL<134>v" ":392v"
"WL<133>v" ":393v"
"WL<132>v" ":394v"
"WL<131>v" ":395v"
"WL<130>v" ":396v"
"WL<129>v" ":397v"
"WL<128>v" ":398v"
"WL<127>v" ":399v"
"WL<126>v" ":400v"
"WL<125>v" ":401v"
"WL<124>v" ":402v"
"WL<123>v" ":403v"
"WL<122>v" ":404v"
"WL<121>v" ":405v"
"WL<120>v" ":406v"
"WL<119>v" ":407v"
"WL<118>v" ":408v"
"WL<117>v" ":409v"
"WL<116>v" ":410v"
"WL<115>v" ":411v"
"WL<114>v" ":412v"
"WL<113>v" ":413v"
"WL<112>v" ":414v"
"WL<111>v" ":415v"
"WL<110>v" ":416v"
"WL<109>v" ":417v"
"WL<108>v" ":418v"
"WL<107>v" ":419v"
"WL<106>v" ":420v"
"WL<105>v" ":421v"
"WL<104>v" ":422v"
"WL<103>v" ":423v"
"WL<102>v" ":424v"
"WL<101>v" ":425v"
"WL<100>v" ":426v"
"WL<99>v" ":427v"
"WL<98>v" ":428v"
"WL<97>v" ":429v"
"WL<96>v" ":430v"
"WL<95>v" ":431v"
"WL<94>v" ":432v"
"WL<93>v" ":433v"
"WL<92>v" ":434v"
"WL<91>v" ":435v"
"WL<90>v" ":436v"
"WL<89>v" ":437v"
"WL<88>v" ":438v"
"WL<87>v" ":439v"
"WL<86>v" ":440v"
"WL<85>v" ":441v"
"WL<84>v" ":442v"
"WL<83>v" ":443v"
"WL<82>v" ":444v"
"WL<81>v" ":445v"
"WL<80>v" ":446v"
"WL<79>v" ":447v"
"WL<78>v" ":448v"
"WL<77>v" ":449v"
"WL<76>v" ":450v"
"WL<75>v" ":451v"
"WL<74>v" ":452v"
"WL<73>v" ":453v"
"WL<72>v" ":454v"
"WL<71>v" ":455v"
"WL<70>v" ":456v"
"WL<69>v" ":457v"
"WL<68>v" ":458v"
"WL<67>v" ":459v"
"WL<66>v" ":460v"
"WL<65>v" ":461v"
"WL<64>v" ":462v"
"WL<63>v" ":463v"
"WL<62>v" ":464v"
"WL<61>v" ":465v"
"WL<60>v" ":466v"
"WL<59>v" ":467v"
"WL<58>v" ":468v"
"WL<57>v" ":469v"
"WL<56>v" ":470v"
"WL<55>v" ":471v"
"WL<54>v" ":472v"
"WL<53>v" ":473v"
"WL<52>v" ":474v"
"WL<51>v" ":475v"
"WL<50>v" ":476v"
"WL<49>v" ":477v"
"WL<48>v" ":478v"
"WL<47>v" ":479v"
"WL<46>v" ":480v"
"WL<45>v" ":481v"
"WL<44>v" ":482v"
"WL<43>v" ":483v"
"WL<42>v" ":484v"
"WL<41>v" ":485v"
"WL<40>v" ":486v"
"WL<39>v" ":487v"
"WL<38>v" ":488v"
"WL<37>v" ":489v"
"WL<36>v" ":490v"
"WL<35>v" ":491v"
"WL<34>v" ":492v"
"WL<33>v" ":493v"
"WL<32>v" ":494v"
"WL<31>v" ":495v"
"WL<30>v" ":496v"
"WL<29>v" ":497v"
"WL<28>v" ":498v"
"WL<27>v" ":499v"
"WL<26>v" ":500v"
"WL<25>v" ":501v"
"WL<24>v" ":502v"
"WL<23>v" ":503v"
"WL<22>v" ":504v"
"WL<21>v" ":505v"
"WL<20>v" ":506v"
"WL<19>v" ":507v"
"WL<18>v" ":508v"
"WL<17>v" ":509v"
"WL<16>v" ":510v"
"WL<15>v" ":511v"
"WL<14>v" ":512v"
"WL<13>v" ":513v"
"WL<12>v" ":514v"
"WL<11>v" ":515v"
"WL<10>v" ":516v"
"WL<9>v" ":517v"
"WL<8>v" ":518v"
"WL<7>v" ":519v"
"WL<6>v" ":520v"
"WL<5>v" ":521v"
"WL<4>v" ":522v"
"WL<3>v" ":523v"
"WL<2>v" ":524v"
"WL<1>v" ":525v"
"WL<0>v" ":526v"
